# vtk DataFile Version 3.0
MOAB 5.1.1
ASCII
DATASET UNSTRUCTURED_GRID
POINTS 1028 double
0 0 0
0 0 3.048
0 3.048 3.048
0 3.048 0
609.6 0 0
609.6 0 3.048
609.6 3.048 3.048
609.6 3.048 0
2.38125 0 0
4.7625 0 0
7.14375 0 0
9.525 0 0
11.90625 0 0
14.2875 0 0
16.66875 0 0
19.05 0 0
21.43125 0 0
23.8125 0 0
26.19375 0 0
28.575 0 0
30.95625 0 0
33.3375 0 0
35.71875 0 0
38.1 0 0
40.48125 0 0
42.8625 0 0
45.24375 0 0
47.625 0 0
50.00625 0 0
52.3875 0 0
54.76875 0 0
57.15 0 0
59.53125 0 0
61.9125 0 0
64.29375 0 0
66.675 0 0
69.05625 0 0
71.4375 0 0
73.81875 0 0
76.2 0 0
78.58125 0 0
80.9625 0 0
83.34375 0 0
85.725 0 0
88.10625 0 0
90.4875 0 0
92.86875 0 0
95.25 0 0
97.63125 0 0
100.0125 0 0
102.39375 0 0
104.775 0 0
107.15625 0 0
109.5375 0 0
111.91875 0 0
114.3 0 0
116.68125 0 0
119.0625 0 0
121.44375 0 0
123.825 0 0
126.20625 0 0
128.5875 0 0
130.96875 0 0
133.35 0 0
135.73125 0 0
138.1125 0 0
140.49375 0 0
142.875 0 0
145.25625 0 0
147.6375 0 0
150.01875 0 0
152.4 0 0
154.78125 0 0
157.1625 0 0
159.54375 0 0
161.925 0 0
164.30625 0 0
166.6875 0 0
169.06875 0 0
171.45 0 0
173.83125 0 0
176.2125 0 0
178.59375 0 0
180.975 0 0
183.35625 0 0
185.7375 0 0
188.11875 0 0
190.5 0 0
192.88125 0 0
195.2625 0 0
197.64375 0 0
200.025 0 0
202.40625 0 0
204.7875 0 0
207.16875 0 0
209.55 0 0
211.93125 0 0
214.3125 0 0
216.69375 0 0
219.075 0 0
221.45625 0 0
223.8375 0 0
226.21875 0 0
228.6 0 0
230.98125 0 0
233.3625 0 0
235.74375 0 0
238.125 0 0
240.50625 0 0
242.8875 0 0
245.26875 0 0
247.65 0 0
250.03125 0 0
252.4125 0 0
254.79375 0 0
257.175 0 0
259.55625 0 0
261.9375 0 0
264.31875 0 0
266.7 0 0
269.08125 0 0
271.4625 0 0
273.84375 0 0
276.225 0 0
278.60625 0 0
280.9875 0 0
283.36875 0 0
285.75 0 0
288.13125 0 0
290.5125 0 0
292.89375 0 0
295.275 0 0
297.65625 0 0
300.0375 0 0
302.41875 0 0
304.8 0 0
307.18125 0 0
309.5625 0 0
311.94375 0 0
314.325 0 0
316.70625 0 0
319.0875 0 0
321.46875 0 0
323.85 0 0
326.23125 0 0
328.6125 0 0
330.99375 0 0
333.375 0 0
335.75625 0 0
338.1375 0 0
340.51875 0 0
342.9 0 0
345.28125 0 0
347.6625 0 0
350.04375 0 0
352.425 0 0
354.80625 0 0
357.1875 0 0
359.56875 0 0
361.95 0 0
364.33125 0 0
366.7125 0 0
369.09375 0 0
371.475 0 0
373.85625 0 0
376.2375 0 0
378.61875 0 0
381 0 0
383.38125 0 0
385.7625 0 0
388.14375 0 0
390.525 0 0
392.90625 0 0
395.2875 0 0
397.66875 0 0
400.05 0 0
402.43125 0 0
404.8125 0 0
407.19375 0 0
409.575 0 0
411.95625 0 0
414.3375 0 0
416.71875 0 0
419.1 0 0
421.48125 0 0
423.8625 0 0
426.24375 0 0
428.625 0 0
431.00625 0 0
433.3875 0 0
435.76875 0 0
438.15 0 0
440.53125 0 0
442.9125 0 0
445.29375 0 0
447.675 0 0
450.05625 0 0
452.4375 0 0
454.81875 0 0
457.2 0 0
459.58125 0 0
461.9625 0 0
464.34375 0 0
466.725 0 0
469.10625 0 0
471.4875 0 0
473.86875 0 0
476.25 0 0
478.63125 0 0
481.0125 0 0
483.39375 0 0
485.775 0 0
488.15625 0 0
490.5375 0 0
492.91875 0 0
495.3 0 0
497.68125 0 0
500.0625 0 0
502.44375 0 0
504.825 0 0
507.20625 0 0
509.5875 0 0
511.96875 0 0
514.35 0 0
516.73125 0 0
519.1125 0 0
521.49375 0 0
523.875 0 0
526.25625 0 0
528.6375 0 0
531.01875 0 0
533.4 0 0
535.78125 0 0
538.1625 0 0
540.54375 0 0
542.925 0 0
545.30625 0 0
547.6875 0 0
550.06875 0 0
552.45 0 0
554.83125 0 0
557.2125 0 0
559.59375 0 0
561.975 0 0
564.35625 0 0
566.7375 0 0
569.11875 0 0
571.5 0 0
573.88125 0 0
576.2625 0 0
578.64375 0 0
581.025 0 0
583.40625 0 0
585.7875 0 0
588.16875 0 0
590.55 0 0
592.93125 0 0
595.3125 0 0
597.69375 0 0
600.075 0 0
602.45625 0 0
604.8375 0 0
607.21875 0 0
2.38125 0 3.048
4.7625 0 3.048
7.14375 0 3.048
9.525 0 3.048
11.90625 0 3.048
14.2875 0 3.048
16.66875 0 3.048
19.05 0 3.048
21.43125 0 3.048
23.8125 0 3.048
26.19375 0 3.048
28.575 0 3.048
30.95625 0 3.048
33.3375 0 3.048
35.71875 0 3.048
38.1 0 3.048
40.48125 0 3.048
42.8625 0 3.048
45.24375 0 3.048
47.625 0 3.048
50.00625 0 3.048
52.3875 0 3.048
54.76875 0 3.048
57.15 0 3.048
59.53125 0 3.048
61.9125 0 3.048
64.29375 0 3.048
66.675 0 3.048
69.05625 0 3.048
71.4375 0 3.048
73.81875 0 3.048
76.2 0 3.048
78.58125 0 3.048
80.9625 0 3.048
83.34375 0 3.048
85.725 0 3.048
88.10625 0 3.048
90.4875 0 3.048
92.86875 0 3.048
95.25 0 3.048
97.63125 0 3.048
100.0125 0 3.048
102.39375 0 3.048
104.775 0 3.048
107.15625 0 3.048
109.5375 0 3.048
111.91875 0 3.048
114.3 0 3.048
116.68125 0 3.048
119.0625 0 3.048
121.44375 0 3.048
123.825 0 3.048
126.20625 0 3.048
128.5875 0 3.048
130.96875 0 3.048
133.35 0 3.048
135.73125 0 3.048
138.1125 0 3.048
140.49375 0 3.048
142.875 0 3.048
145.25625 0 3.048
147.6375 0 3.048
150.01875 0 3.048
152.4 0 3.048
154.78125 0 3.048
157.1625 0 3.048
159.54375 0 3.048
161.925 0 3.048
164.30625 0 3.048
166.6875 0 3.048
169.06875 0 3.048
171.45 0 3.048
173.83125 0 3.048
176.2125 0 3.048
178.59375 0 3.048
180.975 0 3.048
183.35625 0 3.048
185.7375 0 3.048
188.11875 0 3.048
190.5 0 3.048
192.88125 0 3.048
195.2625 0 3.048
197.64375 0 3.048
200.025 0 3.048
202.40625 0 3.048
204.7875 0 3.048
207.16875 0 3.048
209.55 0 3.048
211.93125 0 3.048
214.3125 0 3.048
216.69375 0 3.048
219.075 0 3.048
221.45625 0 3.048
223.8375 0 3.048
226.21875 0 3.048
228.6 0 3.048
230.98125 0 3.048
233.3625 0 3.048
235.74375 0 3.048
238.125 0 3.048
240.50625 0 3.048
242.8875 0 3.048
245.26875 0 3.048
247.65 0 3.048
250.03125 0 3.048
252.4125 0 3.048
254.79375 0 3.048
257.175 0 3.048
259.55625 0 3.048
261.9375 0 3.048
264.31875 0 3.048
266.7 0 3.048
269.08125 0 3.048
271.4625 0 3.048
273.84375 0 3.048
276.225 0 3.048
278.60625 0 3.048
280.9875 0 3.048
283.36875 0 3.048
285.75 0 3.048
288.13125 0 3.048
290.5125 0 3.048
292.89375 0 3.048
295.275 0 3.048
297.65625 0 3.048
300.0375 0 3.048
302.41875 0 3.048
304.8 0 3.048
307.18125 0 3.048
309.5625 0 3.048
311.94375 0 3.048
314.325 0 3.048
316.70625 0 3.048
319.0875 0 3.048
321.46875 0 3.048
323.85 0 3.048
326.23125 0 3.048
328.6125 0 3.048
330.99375 0 3.048
333.375 0 3.048
335.75625 0 3.048
338.1375 0 3.048
340.51875 0 3.048
342.9 0 3.048
345.28125 0 3.048
347.6625 0 3.048
350.04375 0 3.048
352.425 0 3.048
354.80625 0 3.048
357.1875 0 3.048
359.56875 0 3.048
361.95 0 3.048
364.33125 0 3.048
366.7125 0 3.048
369.09375 0 3.048
371.475 0 3.048
373.85625 0 3.048
376.2375 0 3.048
378.61875 0 3.048
381 0 3.048
383.38125 0 3.048
385.7625 0 3.048
388.14375 0 3.048
390.525 0 3.048
392.90625 0 3.048
395.2875 0 3.048
397.66875 0 3.048
400.05 0 3.048
402.43125 0 3.048
404.8125 0 3.048
407.19375 0 3.048
409.575 0 3.048
411.95625 0 3.048
414.3375 0 3.048
416.71875 0 3.048
419.1 0 3.048
421.48125 0 3.048
423.8625 0 3.048
426.24375 0 3.048
428.625 0 3.048
431.00625 0 3.048
433.3875 0 3.048
435.76875 0 3.048
438.15 0 3.048
440.53125 0 3.048
442.9125 0 3.048
445.29375 0 3.048
447.675 0 3.048
450.05625 0 3.048
452.4375 0 3.048
454.81875 0 3.048
457.2 0 3.048
459.58125 0 3.048
461.9625 0 3.048
464.34375 0 3.048
466.725 0 3.048
469.10625 0 3.048
471.4875 0 3.048
473.86875 0 3.048
476.25 0 3.048
478.63125 0 3.048
481.0125 0 3.048
483.39375 0 3.048
485.775 0 3.048
488.15625 0 3.048
490.5375 0 3.048
492.91875 0 3.048
495.3 0 3.048
497.68125 0 3.048
500.0625 0 3.048
502.44375 0 3.048
504.825 0 3.048
507.20625 0 3.048
509.5875 0 3.048
511.96875 0 3.048
514.35 0 3.048
516.73125 0 3.048
519.1125 0 3.048
521.49375 0 3.048
523.875 0 3.048
526.25625 0 3.048
528.6375 0 3.048
531.01875 0 3.048
533.4 0 3.048
535.78125 0 3.048
538.1625 0 3.048
540.54375 0 3.048
542.925 0 3.048
545.30625 0 3.048
547.6875 0 3.048
550.06875 0 3.048
552.45 0 3.048
554.83125 0 3.048
557.2125 0 3.048
559.59375 0 3.048
561.975 0 3.048
564.35625 0 3.048
566.7375 0 3.048
569.11875 0 3.048
571.5 0 3.048
573.88125 0 3.048
576.2625 0 3.048
578.64375 0 3.048
581.025 0 3.048
583.40625 0 3.048
585.7875 0 3.048
588.16875 0 3.048
590.55 0 3.048
592.93125 0 3.048
595.3125 0 3.048
597.69375 0 3.048
600.075 0 3.048
602.45625 0 3.048
604.8375 0 3.048
607.21875 0 3.048
2.38125 3.048 3.048
4.7625 3.048 3.048
7.14375 3.048 3.048
9.525 3.048 3.048
11.90625 3.048 3.048
14.2875 3.048 3.048
16.66875 3.048 3.048
19.05 3.048 3.048
21.43125 3.048 3.048
23.8125 3.048 3.048
26.19375 3.048 3.048
28.575 3.048 3.048
30.95625 3.048 3.048
33.3375 3.048 3.048
35.71875 3.048 3.048
38.1 3.048 3.048
40.48125 3.048 3.048
42.8625 3.048 3.048
45.24375 3.048 3.048
47.625 3.048 3.048
50.00625 3.048 3.048
52.3875 3.048 3.048
54.76875 3.048 3.048
57.15 3.048 3.048
59.53125 3.048 3.048
61.9125 3.048 3.048
64.29375 3.048 3.048
66.675 3.048 3.048
69.05625 3.048 3.048
71.4375 3.048 3.048
73.81875 3.048 3.048
76.2 3.048 3.048
78.58125 3.048 3.048
80.9625 3.048 3.048
83.34375 3.048 3.048
85.725 3.048 3.048
88.10625 3.048 3.048
90.4875 3.048 3.048
92.86875 3.048 3.048
95.25 3.048 3.048
97.63125 3.048 3.048
100.0125 3.048 3.048
102.39375 3.048 3.048
104.775 3.048 3.048
107.15625 3.048 3.048
109.5375 3.048 3.048
111.91875 3.048 3.048
114.3 3.048 3.048
116.68125 3.048 3.048
119.0625 3.048 3.048
121.44375 3.048 3.048
123.825 3.048 3.048
126.20625 3.048 3.048
128.5875 3.048 3.048
130.96875 3.048 3.048
133.35 3.048 3.048
135.73125 3.048 3.048
138.1125 3.048 3.048
140.49375 3.048 3.048
142.875 3.048 3.048
145.25625 3.048 3.048
147.6375 3.048 3.048
150.01875 3.048 3.048
152.4 3.048 3.048
154.78125 3.048 3.048
157.1625 3.048 3.048
159.54375 3.048 3.048
161.925 3.048 3.048
164.30625 3.048 3.048
166.6875 3.048 3.048
169.06875 3.048 3.048
171.45 3.048 3.048
173.83125 3.048 3.048
176.2125 3.048 3.048
178.59375 3.048 3.048
180.975 3.048 3.048
183.35625 3.048 3.048
185.7375 3.048 3.048
188.11875 3.048 3.048
190.5 3.048 3.048
192.88125 3.048 3.048
195.2625 3.048 3.048
197.64375 3.048 3.048
200.025 3.048 3.048
202.40625 3.048 3.048
204.7875 3.048 3.048
207.16875 3.048 3.048
209.55 3.048 3.048
211.93125 3.048 3.048
214.3125 3.048 3.048
216.69375 3.048 3.048
219.075 3.048 3.048
221.45625 3.048 3.048
223.8375 3.048 3.048
226.21875 3.048 3.048
228.6 3.048 3.048
230.98125 3.048 3.048
233.3625 3.048 3.048
235.74375 3.048 3.048
238.125 3.048 3.048
240.50625 3.048 3.048
242.8875 3.048 3.048
245.26875 3.048 3.048
247.65 3.048 3.048
250.03125 3.048 3.048
252.4125 3.048 3.048
254.79375 3.048 3.048
[...]
POINT_DATA 1028
SCALARS GLOBAL_ID int 1
LOOKUP_TABLE default
0 
1 
2 
3 
4 
5 
6 
7 
8 
9 
10 
11 
12 
13 
14 
15 
16 
17 
18 
19 
20 
21 
22 
23 
24 
25 
26 
27 
28 
29 
30 
31 
32 
33 
34 
35 
36 
37 
38 
39 
40 
41 
42 
43 
44 
45 
46 
47 
48 
49 
50 
51 
52 
53 
54 
55 
56 
57 
58 
59 
60 
61 
62 
63 
64 
65 
66 
67 
68 
69 
70 
71 
72 
73 
74 
75 
76 
77 
78 
79 
80 
81 
82 
83 
84 
85 
86 
87 
88 
89 
90 
91 
92 
93 
94 
95 
96 
97 
98 
99 
100 
101 
102 
103 
104 
105 
106 
107 
108 
109 
110 
111 
112 
113 
114 
115 
116 
117 
118 
119 
120 
121 
122 
123 
124 
125 
126 
127 
128 
129 
130 
131 
132 
133 
134 
135 
136 
137 
138 
139 
140 
141 
142 
143 
144 
145 
146 
147 
148 
149 
150 
151 
152 
153 
154 
155 
156 
157 
158 
159 
160 
161 
162 
163 
164 
165 
166 
167 
168 
169 
170 
171 
172 
173 
174 
175 
176 
177 
178 
179 
180 
181 
182 
183 
184 
185 
186 
187 
188 
189 
190 
191 
192 
193 
194 
195 
196 
197 
198 
199 
200 
201 
202 
203 
204 
205 
206 
207 
208 
209 
210 
211 
212 
213 
214 
215 
216 
217 
218 
219 
220 
221 
222 
223 
224 
225 
226 
227 
228 
229 
230 
231 
232 
233 
234 
235 
236 
237 
238 
239 
240 
241 
242 
243 
244 
245 
246 
247 
248 
249 
250 
251 
252 
253 
254 
255 
256 
257 
258 
259 
260 
261 
262 
263 
264 
265 
266 
267 
268 
269 
270 
271 
272 
273 
274 
275 
276 
277 
278 
279 
280 
281 
282 
283 
284 
285 
286 
287 
288 
289 
290 
291 
292 
293 
294 
295 
296 
297 
298 
299 
300 
301 
302 
303 
304 
305 
306 
307 
308 
309 
310 
311 
312 
313 
314 
315 
316 
317 
318 
319 
320 
321 
322 
323 
324 
325 
326 
327 
328 
329 
330 
331 
332 
333 
334 
335 
336 
337 
338 
339 
340 
341 
342 
343 
344 
345 
346 
347 
348 
349 
350 
351 
352 
353 
354 
355 
356 
357 
358 
359 
360 
361 
362 
363 
364 
365 
366 
367 
368 
369 
370 
371 
372 
373 
374 
375 
376 
377 
378 
379 
380 
381 
382 
383 
384 
385 
386 
387 
388 
389 
390 
391 
392 
393 
394 
395 
396 
397 
398 
399 
400 
401 
402 
403 
404 
405 
406 
407 
408 
409 
410 
411 
412 
413 
414 
415 
416 
417 
418 
419 
420 
421 
422 
423 
424 
425 
426 
427 
428 
429 
430 
431 
432 
433 
434 
435 
436 
437 
438 
439 
440 
441 
442 
443 
444 
445 
446 
447 
448 
449 
450 
451 
452 
453 
454 
455 
456 
457 
458 
459 
460 
461 
462 
463 
464 
465 
466 
467 
468 
469 
470 
471 
472 
473 
474 
475 
476 
477 
478 
479 
480 
481 
482 
483 
484 
485 
486 
487 
488 
489 
490 
491 
492 
493 
494 
495 
496 
497 
498 
499 
500 
501 
502 
503 
504 
505 
506 
507 
508 
509 
510 
511 
512 
513 
514 
515 
516 
517 
518 
519 
520 
521 
522 
523 
524 
525 
526 
527 
528 
529 
530 
531 
532 
533 
534 
535 
536 
537 
538 
539 
540 
541 
542 
543 
544 
545 
546 
547 
548 
549 
550 
551 
552 
553 
554 
555 
556 
557 
558 
559 
560 
561 
562 
563 
564 
565 
566 
567 
568 
569 
570 
571 
572 
573 
574 
575 
576 
577 
578 
579 
580 
581 
582 
583 
584 
585 
586 
587 
588 
589 
590 
591 
592 
593 
594 
595 
596 
597 
598 
599 
600 
601 
602 
603 
604 
605 
606 
607 
608 
609 
610 
611 
612 
613 
614 
615 
616 
617 
618 
619 
620 
621 
622 
623 
624 
625 
626 
627 
628 
629 
630 
631 
632 
633 
634 
635 
636 
637 
638 
639 
640 
641 
642 
643 
644 
645 
646 
647 
648 
649 
650 
651 
652 
653 
654 
655 
656 
657 
658 
659 
660 
661 
662 
663 
664 
665 
666 
667 
668 
669 
670 
671 
672 
673 
674 
675 
676 
677 
678 
679 
680 
681 
682 
683 
684 
685 
686 
687 
688 
689 
690 
691 
692 
693 
694 
695 
696 
697 
698 
699 
700 
701 
702 
703 
704 
705 
706 
707 
708 
709 
710 
711 
712 
713 
714 
715 
716 
717 
718 
719 
720 
721 
722 
723 
724 
725 
726 
727 
728 
729 
730 
731 
732 
733 
734 
735 
736 
737 
738 
739 
740 
741 
742 
743 
744 
745 
746 
747 
748 
749 
750 
751 
752 
753 
754 
755 
756 
757 
758 
759 
760 
761 
762 
763 
764 
765 
766 
767 
768 
769 
770 
771 
772 
773 
774 
775 
776 
777 
778 
779 
780 
781 
782 
783 
784 
785 
786 
787 
788 
789 
790 
791 
792 
793 
794 
795 
796 
797 
798 
799 
800 
801 
802 
803 
804 
805 
806 
807 
808 
809 
810 
811 
812 
813 
814 
815 
816 
817 
818 
819 
820 
821 
822 
823 
824 
825 
826 
827 
828 
829 
830 
831 
832 
833 
834 
835 
836 
837 
838 
839 
840 
841 
842 
843 
844 
845 
846 
847 
848 
849 
850 
851 
852 
853 
854 
855 
856 
857 
858 
859 
860 
861 
862 
863 
864 
865 
866 
867 
868 
869 
870 
871 
872 
873 
874 
875 
876 
877 
878 
879 
880 
881 
882 
883 
884 
885 
886 
887 
888 
889 
890 
891 
892 
893 
894 
895 
896 
897 
898 
899 
900 
901 
902 
903 
904 
905 
906 
907 
908 
909 
910 
911 
912 
913 
914 
915 
916 
917 
918 
919 
920 
921 
922 
923 
924 
925 
926 
927 
928 
929 
930 
931 
932 
933 
934 
935 
936 
937 
938 
939 
940 
941 
942 
943 
944 
945 
946 
947 
948 
949 
950 
951 
952 
953 
954 
955 
956 
957 
958 
959 
960 
961 
962 
963 
964 
965 
966 
967 
968 
969 
970 
971 
972 
973 
974 
975 
976 
977 
978 
979 
980 
981 
982 
983 
984 
985 
986 
987 
988 
989 
990 
991 
992 
993 
994 
995 
996 
997 
998 
999 
1000 
1001 
1002 
1003 
1004 
1005 
1006 
1007 
1008 
1009 
1010 
1011 
1012 
1013 
1014 
1015 
1016 
1017 
1018 
1019 
1020 
1021 
1022 
1023 
1024 
1025 
1026 
1027 
VECTORS NODES double
0 0 0 
0 0 3.048 
0 3.048 3.048 
0 3.048 0 
609.6 0 0 
609.6 0 3.048 
609.6 3.048 3.048 
609.6 3.048 0 
2.38125 0 0 
4.7625 0 0 
7.14375 0 0 
9.525 0 0 
11.90625 0 0 
14.2875 0 0 
16.66875 0 0 
19.05 0 0 
21.43125 0 0 
23.8125 0 0 
26.19375 0 0 
28.575 0 0 
30.95625 0 0 
33.3375 0 0 
35.71875 0 0 
38.1 0 0 
40.48125 0 0 
42.8625 0 0 
45.24375 0 0 
47.625 0 0 
50.00625 0 0 
52.3875 0 0 
54.76875 0 0 
57.15 0 0 
59.53125 0 0 
61.9125 0 0 
64.29375 0 0 
66.675 0 0 
69.05625 0 0 
71.4375 0 0 
73.81875 0 0 
76.2 0 0 
78.58125 0 0 
80.9625 0 0 
83.34375 0 0 
85.725 0 0 
88.10625 0 0 
90.4875 0 0 
92.86875 0 0 
95.25 0 0 
97.63125 0 0 
100.0125 0 0 
102.39375 0 0 
104.775 0 0 
107.15625 0 0 
109.5375 0 0 
111.91875 0 0 
114.3 0 0 
116.68125 0 0 
119.0625 0 0 
121.44375 0 0 
123.825 0 0 
126.20625 0 0 
128.5875 0 0 
130.96875 0 0 
133.35 0 0 
135.73125 0 0 
138.1125 0 0 
140.49375 0 0 
142.875 0 0 
145.25625 0 0 
147.6375 0 0 
150.01875 0 0 
152.4 0 0 
154.78125 0 0 
157.1625 0 0 
159.54375 0 0 
161.925 0 0 
164.30625 0 0 
166.6875 0 0 
169.06875 0 0 
171.45 0 0 
173.83125 0 0 
176.2125 0 0 
178.59375 0 0 
180.975 0 0 
183.35625 0 0 
185.7375 0 0 
188.11875 0 0 
190.5 0 0 
192.88125 0 0 
195.2625 0 0 
197.64375 0 0 
200.025 0 0 
202.40625 0 0 
204.7875 0 0 
207.16875 0 0 
209.55 0 0 
211.93125 0 0 
214.3125 0 0 
216.69375 0 0 
219.075 0 0 
221.45625 0 0 
223.8375 0 0 
226.21875 0 0 
228.6 0 0 
230.98125 0 0 
233.3625 0 0 
235.74375 0 0 
238.125 0 0 
240.50625 0 0 
242.8875 0 0 
245.26875 0 0 
247.65 0 0 
250.03125 0 0 
252.4125 0 0 
254.79375 0 0 
257.175 0 0 
259.55625 0 0 
261.9375 0 0 
264.31875 0 0 
266.7 0 0 
269.08125 0 0 
271.4625 0 0 
273.84375 0 0 
276.225 0 0 
278.60625 0 0 
280.9875 0 0 
283.36875 0 0 
285.75 0 0 
288.13125 0 0 
290.5125 0 0 
292.89375 0 0 
295.275 0 0 
297.65625 0 0 
300.0375 0 0 
302.41875 0 0 
304.8 0 0 
307.18125 0 0 
309.5625 0 0 
311.94375 0 0 
314.325 0 0 
316.70625 0 0 
319.0875 0 0 
321.46875 0 0 
323.85 0 0 
326.23125 0 0 
328.6125 0 0 
330.99375 0 0 
333.375 0 0 
335.75625 0 0 
338.1375 0 0 
340.51875 0 0 
342.9 0 0 
345.28125 0 0 
347.6625 0 0 
350.04375 0 0 
352.425 0 0 
354.80625 0 0 
357.1875 0 0 
359.56875 0 0 
361.95 0 0 
364.33125 0 0 
366.7125 0 0 
369.09375 0 0 
371.475 0 0 
373.85625 0 0 
376.2375 0 0 
378.61875 0 0 
381 0 0 
383.38125 0 0 
385.7625 0 0 
388.14375 0 0 
390.525 0 0 
392.90625 0 0 
395.2875 0 0 
397.66875 0 0 
400.05 0 0 
402.43125 0 0 
404.8125 0 0 
407.19375 0 0 
409.575 0 0 
411.95625 0 0 
414.3375 0 0 
416.71875 0 0 
419.1 0 0 
421.48125 0 0 
423.8625 0 0 
426.24375 0 0 
428.625 0 0 
431.00625 0 0 
433.3875 0 0 
435.76875 0 0 
438.15 0 0 
440.53125 0 0 
442.9125 0 0 
445.29375 0 0 
447.675 0 0 
450.05625 0 0 
452.4375 0 0 
454.81875 0 0 
457.2 0 0 
459.58125 0 0 
461.9625 0 0 
464.34375 0 0 
466.725 0 0 
469.10625 0 0 
471.4875 0 0 
473.86875 0 0 
476.25 0 0 
478.63125 0 0 
481.0125 0 0 
483.39375 0 0 
485.775 0 0 
488.15625 0 0 
490.5375 0 0 
492.91875 0 0 
495.3 0 0 
497.68125 0 0 
500.0625 0 0 
502.44375 0 0 
504.825 0 0 
507.20625 0 0 
509.5875 0 0 
511.96875 0 0 
514.35 0 0 
516.73125 0 0 
519.1125 0 0 
521.49375 0 0 
523.875 0 0 
526.25625 0 0 
528.6375 0 0 
531.01875 0 0 
533.4 0 0 
535.78125 0 0 
538.1625 0 0 
540.54375 0 0 
542.925 0 0 
545.30625 0 0 
547.6875 0 0 
550.06875 0 0 
552.45 0 0 
554.83125 0 0 
557.2125 0 0 
559.59375 0 0 
561.975 0 0 
564.35625 0 0 
566.7375 0 0 
569.11875 0 0 
571.5 0 0 
573.88125 0 0 
576.2625 0 0 
578.64375 0 0 
581.025 0 0 
583.40625 0 0 
585.7875 0 0 
588.16875 0 0 
590.55 0 0 
592.93125 0 0 
595.3125 0 0 
597.69375 0 0 
600.075 0 0 
602.45625 0 0 
604.8375 0 0 
607.21875 0 0 
2.38125 0 3.048 
4.7625 0 3.048 
7.14375 0 3.048 
9.525 0 3.048 
11.90625 0 3.048 
14.2875 0 3.048 
16.66875 0 3.048 
19.05 0 3.048 
21.43125 0 3.048 
23.8125 0 3.048 
26.19375 0 3.048 
28.575 0 3.048 
30.95625 0 3.048 
33.3375 0 3.048 
35.71875 0 3.048 
38.1 0 3.048 
40.48125 0 3.048 
42.8625 0 3.048 
45.24375 0 3.048 
47.625 0 3.048 
50.00625 0 3.048 
52.3875 0 3.048 
54.76875 0 3.048 
57.15 0 3.048 
59.53125 0 3.048 
61.9125 0 3.048 
64.29375 0 3.048 
66.675 0 3.048 
69.05625 0 3.048 
71.4375 0 3.048 
73.81875 0 3.048 
76.2 0 3.048 
78.58125 0 3.048 
80.9625 0 3.048 
83.34375 0 3.048 
85.725 0 3.048 
88.10625 0 3.048 
90.4875 0 3.048 
92.86875 0 3.048 
95.25 0 3.048 
97.63125 0 3.048 
100.0125 0 3.048 
102.39375 0 3.048 
104.775 0 3.048 
107.15625 0 3.048 
109.5375 0 3.048 
111.91875 0 3.048 
114.3 0 3.048 
116.68125 0 3.048 
119.0625 0 3.048 
121.44375 0 3.048 
123.825 0 3.048 
126.20625 0 3.048 
128.5875 0 3.048 
130.96875 0 3.048 
133.35 0 3.048 
135.73125 0 3.048 
138.1125 0 3.048 
140.49375 0 3.048 
142.875 0 3.048 
145.25625 0 3.048 
147.6375 0 3.048 
150.01875 0 3.048 
152.4 0 3.048 
154.78125 0 3.048 
157.1625 0 3.048 
159.54375 0 3.048 
161.925 0 3.048 
164.30625 0 3.048 
166.6875 0 3.048 
169.06875 0 3.048 
171.45 0 3.048 
173.83125 0 3.048 
176.2125 0 3.048 
178.59375 0 3.048 
180.975 0 3.048 
183.35625 0 3.048 
185.7375 0 3.048 
188.11875 0 3.048 
190.5 0 3.048 
192.88125 0 3.048 
195.2625 0 3.048 
197.64375 0 3.048 
200.025 0 3.048 
202.40625 0 3.048 
204.7875 0 3.048 
207.16875 0 3.048 
209.55 0 3.048 
211.93125 0 3.048 
214.3125 0 3.048 
216.69375 0 3.048 
219.075 0 3.048 
221.45625 0 3.048 
223.8375 0 3.048 
226.21875 0 3.048 
228.6 0 3.048 
230.98125 0 3.048 
233.3625 0 3.048 
235.74375 0 3.048 
238.125 0 3.048 
240.50625 0 3.048 
242.8875 0 3.048 
245.26875 0 3.048 
247.65 0 3.048 
250.03125 0 3.048 
252.4125 0 3.048 
254.79375 0 3.048 
257.175 0 3.048 
259.55625 0 3.048 
261.9375 0 3.048 
264.31875 0 3.048 
266.7 0 3.048 
269.08125 0 3.048 
271.4625 0 3.048 
273.84375 0 3.048 
276.225 0 3.048 
278.60625 0 3.048 
280.9875 0 3.048 
283.36875 0 3.048 
285.75 0 3.048 
288.13125 0 3.048 
290.5125 0 3.048 
292.89375 0 3.048 
295.275 0 3.048 
297.65625 0 3.048 
300.0375 0 3.048 
302.41875 0 3.048 
304.8 0 3.048 
307.18125 0 3.048 
309.5625 0 3.048 
311.94375 0 3.048 
314.325 0 3.048 
316.70625 0 3.048 
319.0875 0 3.048 
321.46875 0 3.048 
323.85 0 3.048 
326.23125 0 3.048 
328.6125 0 3.048 
330.99375 0 3.048 
333.375 0 3.048 
335.75625 0 3.048 
338.1375 0 3.048 
340.51875 0 3.048 
342.9 0 3.048 
345.28125 0 3.048 
347.6625 0 3.048 
350.04375 0 3.048 
352.425 0 3.048 
354.80625 0 3.048 
357.1875 0 3.048 
359.56875 0 3.048 
361.95 0 3.048 
364.33125 0 3.048 
366.7125 0 3.048 
369.09375 0 3.048 
371.475 0 3.048 
373.85625 0 3.048 
376.2375 0 3.048 
378.61875 0 3.048 
381 0 3.048 
383.38125 0 3.048 
385.7625 0 3.048 
388.14375 0 3.048 
390.525 0 3.048 
392.90625 0 3.048 
395.2875 0 3.048 
397.66875 0 3.048 
400.05 0 3.048 
402.43125 0 3.048 
404.8125 0 3.048 
407.19375 0 3.048 
409.575 0 3.048 
411.95625 0 3.048 
414.3375 0 3.048 
416.71875 0 3.048 
419.1 0 3.048 
421.48125 0 3.048 
423.8625 0 3.048 
426.24375 0 3.048 
428.625 0 3.048 
431.00625 0 3.048 
433.3875 0 3.048 
435.76875 0 3.048 
438.15 0 3.048 
440.53125 0 3.048 
442.9125 0 3.048 
445.29375 0 3.048 
447.675 0 3.048 
450.05625 0 3.048 
452.4375 0 3.048 
454.81875 0 3.048 
457.2 0 3.048 
459.58125 0 3.048 
461.9625 0 3.048 
464.34375 0 3.048 
466.725 0 3.048 
469.10625 0 3.048 
471.4875 0 3.048 
473.86875 0 3.048 
476.25 0 3.048 
478.63125 0 3.048 
481.0125 0 3.048 
483.39375 0 3.048 
485.775 0 3.048 
488.15625 0 3.048 
490.5375 0 3.048 
492.91875 0 3.048 
495.3 0 3.048 
497.68125 0 3.048 
500.0625 0 3.048 
502.44375 0 3.048 
504.825 0 3.048 
507.20625 0 3.048 
509.5875 0 3.048 
511.96875 0 3.048 
514.35 0 3.048 
516.73125 0 3.048 
519.1125 0 3.048 
521.49375 0 3.048 
523.875 0 3.048 
526.25625 0 3.048 
528.6375 0 3.048 
531.01875 0 3.048 
533.4 0 3.048 
535.78125 0 3.048 
538.1625 0 3.048 
540.54375 0 3.048 
542.925 0 3.048 
545.30625 0 3.048 
547.6875 0 3.048 
550.06875 0 3.048 
552.45 0 3.048 
554.83125 0 3.048 
557.2125 0 3.048 
559.59375 0 3.048 
561.975 0 3.048 
564.35625 0 3.048 
566.7375 0 3.048 
569.11875 0 3.048 
571.5 0 3.048 
573.88125 0 3.048 
576.2625 0 3.048 
578.64375 0 3.048 
581.025 0 3.048 
583.40625 0 3.048 
585.7875 0 3.048 
588.16875 0 3.048 
590.55 0 3.048 
592.93125 0 3.048 
595.3125 0 3.048 
597.69375 0 3.048 
600.075 0 3.048 
602.45625 0 3.048 
604.8375 0 3.048 
607.21875 0 3.048 
2.38125 3.048 3.048 
4.7625 3.048 3.048 
7.14375 3.048 3.048 
9.525 3.048 3.048 
11.90625 3.048 3.048 
14.2875 3.048 3.048 
16.66875 3.048 3.048 
19.05 3.048 3.048 
21.43125 3.048 3.048 
23.8125 3.048 3.048 
26.19375 3.048 3.048 
28.575 3.048 3.048 
30.95625 3.048 3.048 
33.3375 3.048 3.048 
35.71875 3.048 3.048 
38.1 3.048 3.048 
40.48125 3.048 3.048 
42.8625 3.048 3.048 
45.24375 3.048 3.048 
47.625 3.048 3.048 
50.00625 3.048 3.048 
52.3875 3.048 3.048 
54.76875 3.048 3.048 
57.15 3.048 3.048 
59.53125 3.048 3.048 
61.9125 3.048 3.048 
64.29375 3.048 3.048 
66.675 3.048 3.048 
69.05625 3.048 3.048 
71.4375 3.048 3.048 
73.81875 3.048 3.048 
76.2 3.048 3.048 
78.58125 3.048 3.048 
80.9625 3.048 3.048 
83.34375 3.048 3.048 
85.725 3.048 3.048 
88.10625 3.048 3.048 
90.4875 3.048 3.048 
92.86875 3.048 3.048 
95.25 3.048 3.048 
97.63125 3.048 3.048 
100.0125 3.048 3.048 
102.39375 3.048 3.048 
104.775 3.048 3.048 
107.15625 3.048 3.048 
109.5375 3.048 3.048 
111.91875 3.048 3.048 
114.3 3.048 3.048 
116.68125 3.048 3.048 
119.0625 3.048 3.048 
121.44375 3.048 3.048 
123.825 3.048 3.048 
126.20625 3.048 3.048 
128.5875 3.048 3.048 
130.96875 3.048 3.048 
133.35 3.048 3.048 
135.73125 3.048 3.048 
138.1125 3.048 3.048 
140.49375 3.048 3.048 
142.875 3.048 3.048 
145.25625 3.048 3.048 
147.6375 3.048 3.048 
150.01875 3.048 3.048 
152.4 3.048 3.048 
154.78125 3.048 3.048 
157.1625 3.048 3.048 
159.54375 3.048 3.048 
161.925 3.048 3.048 
164.30625 3.048 3.048 
166.6875 3.048 3.048 
169.06875 3.048 3.048 
171.45 3.048 3.048 
173.83125 3.048 3.048 
176.2125 3.048 3.048 
178.59375 3.048 3.048 
180.975 3.048 3.048 
183.35625 3.048 3.048 
185.7375 3.048 3.048 
188.11875 3.048 3.048 
190.5 3.048 3.048 
192.88125 3.048 3.048 
195.2625 3.048 3.048 
197.64375 3.048 3.048 
200.025 3.048 3.048 
202.40625 3.048 3.048 
204.7875 3.048 3.048 
207.16875 3.048 3.048 
209.55 3.048 3.048 
211.93125 3.048 3.048 
214.3125 3.048 3.048 
216.69375 3.048 3.048 
219.075 3.048 3.048 
221.45625 3.048 3.048 
223.8375 3.048 3.048 
226.21875 3.048 3.048 
228.6 3.048 3.048 
230.98125 3.048 3.048 
233.3625 3.048 3.048 
235.74375 3.048 3.048 
238.125 3.048 3.048 
240.50625 3.048 3.048 
242.8875 3.048 3.048 
245.26875 3.048 3.048 
247.65 3.048 3.048 
250.03125 3.048 3.048 
252.4125 3.048 3.048 
254.79375 3.048 3.048 
257.175 3.048 3.048 
259.55625 3.048 3.048 
261.9375 3.048 3.048 
264.31875 3.048 3.048 
266.7 3.048 3.048 
269.08125 3.048 3.048 
271.4625 3.048 3.048 
273.84375 3.048 3.048 
276.225 3.048 3.048 
278.60625 3.048 3.048 
280.9875 3.048 3.048 
283.36875 3.048 3.048 
285.75 3.048 3.048 
288.13125 3.048 3.048 
290.5125 3.048 3.048 
292.89375 3.048 3.048 
295.275 3.048 3.048 
297.65625 3.048 3.048 
300.0375 3.048 3.048 
302.41875 3.048 3.048 
304.8 3.048 3.048 
307.18125 3.048 3.048 
309.5625 3.048 3.048 
311.94375 3.048 3.048 
314.325 3.048 3.048 
316.70625 3.048 3.048 
319.0875 3.048 3.048 
321.46875 3.048 3.048 
323.85 3.048 3.048 
326.23125 3.048 3.048 
328.6125 3.048 3.048 
330.99375 3.048 3.048 
333.375 3.048 3.048 
335.75625 3.048 3.048 
338.1375 3.048 3.048 
340.51875 3.048 3.048 
342.9 3.048 3.048 
345.28125 3.048 3.048 
347.6625 3.048 3.048 
350.04375 3.048 3.048 
352.425 3.048 3.048 
354.80625 3.048 3.048 
357.1875 3.048 3.048 
359.56875 3.048 3.048 
361.95 3.048 3.048 
364.33125 3.048 3.048 
366.7125 3.048 3.048 
369.09375 3.048 3.048 
371.475 3.048 3.048 
373.85625 3.048 3.048 
376.2375 3.048 3.048 
378.61875 3.048 3.048 
381 3.048 3.048 
383.38125 3.048 3.048 
385.7625 3.048 3.048 
388.14375 3.048 3.048 
390.525 3.048 3.048 
392.90625 3.048 3.048 
395.2875 3.048 3.048 
397.66875 3.048 3.048 
400.05 3.048 3.048 
402.43125 3.048 3.048 
404.8125 3.048 3.048 
407.19375 3.048 3.048 
409.575 3.048 3.048 
411.95625 3.048 3.048 
414.3375 3.048 3.048 
416.71875 3.048 3.048 
419.1 3.048 3.048 
421.48125 3.048 3.048 
423.8625 3.048 3.048 
426.24375 3.048 3.048 
428.625 3.048 3.048 
431.00625 3.048 3.048 
433.3875 3.048 3.048 
435.76875 3.048 3.048 
438.15 3.048 3.048 
440.53125 3.048 3.048 
442.9125 3.048 3.048 
445.29375 3.048 3.048 
447.675 3.048 3.048 
450.05625 3.048 3.048 
452.4375 3.048 3.048 
454.81875 3.048 3.048 
457.2 3.048 3.048 
459.58125 3.048 3.048 
461.9625 3.048 3.048 
464.34375 3.048 3.048 
466.725 3.048 3.048 
469.10625 3.048 3.048 
471.4875 3.048 3.048 
473.86875 3.048 3.048 
476.25 3.048 3.048 
478.63125 3.048 3.048 
481.0125 3.048 3.048 
483.39375 3.048 3.048 
485.775 3.048 3.048 
488.15625 3.048 3.048 
490.5375 3.048 3.048 
492.91875 3.048 3.048 
495.3 3.048 3.048 
497.68125 3.048 3.048 
500.0625 3.048 3.048 
502.44375 3.048 3.048 
504.825 3.048 3.048 
507.20625 3.048 3.048 
509.5875 3.048 3.048 
511.96875 3.048 3.048 
514.35 3.048 3.048 
516.73125 3.048 3.048 
519.1125 3.048 3.048 
521.49375 3.048 3.048 
523.875 3.048 3.048 
526.25625 3.048 3.048 
528.6375 3.048 3.048 
531.01875 3.048 3.048 
533.4 3.048 3.048 
535.78125 3.048 3.048 
538.1625 3.048 3.048 
540.54375 3.048 3.048 
542.925 3.048 3.048 
545.30625 3.048 3.048 
547.6875 3.048 3.048 
550.06875 3.048 3.048 
552.45 3.048 3.048 
554.83125 3.048 3.048 
557.2125 3.048 3.048 
559.59375 3.048 3.048 
561.975 3.048 3.048 
564.35625 3.048 3.048 
566.7375 3.048 3.048 
569.11875 3.048 3.048 
571.5 3.048 3.048 
573.88125 3.048 3.048 
576.2625 3.048 3.048 
578.64375 3.048 3.048 
581.025 3.048 3.048 
583.40625 3.048 3.048 
585.7875 3.048 3.048 
588.16875 3.048 3.048 
590.55 3.048 3.048 
592.93125 3.048 3.048 
595.3125 3.048 3.048 
597.69375 3.048 3.048 
600.075 3.048 3.048 
602.45625 3.048 3.048 
604.8375 3.048 3.048 
607.21875 3.048 3.048 
2.38125 3.048 0 
4.7625 3.048 0 
7.14375 3.048 0 
9.525 3.048 0 
11.90625 3.048 0 
14.2875 3.048 0 
16.66875 3.048 0 
19.05 3.048 0 
21.43125 3.048 0 
23.8125 3.048 0 
26.19375 3.048 0 
28.575 3.048 0 
30.95625 3.048 0 
33.3375 3.048 0 
35.71875 3.048 0 
38.1 3.048 0 
40.48125 3.048 0 
42.8625 3.048 0 
45.24375 3.048 0 
47.625 3.048 0 
50.00625 3.048 0 
52.3875 3.048 0 
54.76875 3.048 0 
57.15 3.048 0 
59.53125 3.048 0 
61.9125 3.048 0 
64.29375 3.048 0 
66.675 3.048 0 
69.05625 3.048 0 
71.4375 3.048 0 
73.81875 3.048 0 
76.2 3.048 0 
78.58125 3.048 0 
80.9625 3.048 0 
83.34375 3.048 0 
85.725 3.048 0 
88.10625 3.048 0 
90.4875 3.048 0 
92.86875 3.048 0 
95.25 3.048 0 
97.63125 3.048 0 
100.0125 3.048 0 
102.39375 3.048 0 
104.775 3.048 0 
107.15625 3.048 0 
109.5375 3.048 0 
111.91875 3.048 0 
114.3 3.048 0 
116.68125 3.048 0 
119.0625 3.048 0 
121.44375 3.048 0 
123.825 3.048 0 
126.20625 3.048 0 
128.5875 3.048 0 
130.96875 3.048 0 
133.35 3.048 0 
135.73125 3.048 0 
138.1125 3.048 0 
140.49375 3.048 0 
142.875 3.048 0 
145.25625 3.048 0 