# vtk DataFile Version 3.0
MOAB 5.1.1
ASCII
DATASET UNSTRUCTURED_GRID
POINTS 68 double
0 0 0
0 0 3.048
0 3.048 3.048
0 3.048 0
609.6 0 0
609.6 0 3.048
609.6 3.048 3.048
609.6 3.048 0
38.1 0 0
76.2 0 0
114.3 0 0
152.4 0 0
190.5 0 0
228.6 0 0
266.7 0 0
304.8 0 0
342.9 0 0
381 0 0
419.1 0 0
457.2 0 0
495.3 0 0
533.4 0 0
571.5 0 0
38.1 0 3.048
76.2 0 3.048
114.3 0 3.048
152.4 0 3.048
190.5 0 3.048
228.6 0 3.048
266.7 0 3.048
304.8 0 3.048
342.9 0 3.048
381 0 3.048
419.1 0 3.048
457.2 0 3.048
495.3 0 3.048
533.4 0 3.048
571.5 0 3.048
38.1 3.048 3.048
76.2 3.048 3.048
114.3 3.048 3.048
152.4 3.048 3.048
190.5 3.048 3.048
228.6 3.048 3.048
266.7 3.048 3.048
304.8 3.048 3.048
342.9 3.048 3.048
381 3.048 3.048
419.1 3.048 3.048
457.2 3.048 3.048
495.3 3.048 3.048
533.4 3.048 3.048
571.5 3.048 3.048
38.1 3.048 0
76.2 3.048 0
114.3 3.048 0
152.4 3.048 0
190.5 3.048 0
228.6 3.048 0
266.7 3.048 0
304.8 3.048 0
342.9 3.048 0
381 3.048 0
419.1 3.048 0
457.2 3.048 0
495.3 3.048 0
533.4 3.048 0
571.5 3.048 0
CELLS 16 144
8 2 1 0 3 38 23 8 53
8 38 23 8 53 39 24 9 54
8 39 24 9 54 40 25 10 55
8 40 25 10 55 41 26 11 56
8 41 26 11 56 42 27 12 57
8 42 27 12 57 43 28 13 58
8 43 28 13 58 44 29 14 59
8 44 29 14 59 45 30 15 60
8 45 30 15 60 46 31 16 61
8 46 31 16 61 47 32 17 62
8 47 32 17 62 48 33 18 63
8 48 33 18 63 49 34 19 64
8 49 34 19 64 50 35 20 65
8 50 35 20 65 51 36 21 66
8 51 36 21 66 52 37 22 67
8 52 37 22 67 6 5 4 7
CELL_TYPES 16
12
12
12
12
12
12
12
12
12
12
12
12
12
12
12
12
POINT_DATA 68
SCALARS GLOBAL_ID int 1
LOOKUP_TABLE default
0 
1 
2 
3 
4 
5 
6 
7 
8 
9 
10 
11 
12 
13 
14 
15 
16 
17 
18 
19 
20 
21 
22 
23 
24 
25 
26 
27 
28 
29 
30 
31 
32 
33 
34 
35 
36 
37 
38 
39 
40 
41 
42 
43 
44 
45 
46 
47 
48 
49 
50 
51 
52 
53 
54 
55 
56 
57 
58 
59 
60 
61 
62 
63 
64 
65 
66 
67 
VECTORS NODES double
0 0 0 
0 0 3.048 
0 3.048 3.048 
0 3.048 0 
609.6 0 0 
609.6 0 3.048 
609.6 3.048 3.048 
609.6 3.048 0 
38.1 0 0 
76.2 0 0 
114.3 0 0 
152.4 0 0 
190.5 0 0 
228.6 0 0 
266.7 0 0 
304.8 0 0 
342.9 0 0 
381 0 0 
419.1 0 0 
457.2 0 0 
495.3 0 0 
533.4 0 0 
571.5 0 0 
38.1 0 3.048 
76.2 0 3.048 
114.3 0 3.048 
152.4 0 3.048 
190.5 0 3.048 
228.6 0 3.048 
266.7 0 3.048 
304.8 0 3.048 
342.9 0 3.048 
381 0 3.048 
419.1 0 3.048 
457.2 0 3.048 
495.3 0 3.048 
533.4 0 3.048 
571.5 0 3.048 
38.1 3.048 3.048 
76.2 3.048 3.048 
114.3 3.048 3.048 
152.4 3.048 3.048 
190.5 3.048 3.048 
228.6 3.048 3.048 
266.7 3.048 3.048 
304.8 3.048 3.048 
342.9 3.048 3.048 
381 3.048 3.048 
419.1 3.048 3.048 
457.2 3.048 3.048 
495.3 3.048 3.048 
533.4 3.048 3.048 
571.5 3.048 3.048 
38.1 3.048 0 
76.2 3.048 0 
114.3 3.048 0 
152.4 3.048 0 
190.5 3.048 0 
228.6 3.048 0 
266.7 3.048 0 
304.8 3.048 0 
342.9 3.048 0 
381 3.048 0 
419.1 3.048 0 
457.2 3.048 0 
495.3 3.048 0 
533.4 3.048 0 
571.5 3.048 0 
VECTORS centroid_nodes double
0 0 0 
0 0 3.048 
0 3.048 3.048 
0 3.048 0 
609.6 0 0 
609.6 0 3.048 
609.6 3.048 3.048 
609.6 3.048 0 
38.1 0 0 
76.2 0 0 
114.3 0 0 
152.4 0 0 
190.5 0 0 
228.6 0 0 
266.7 0 0 
304.8 0 0 
342.9 0 0 
381 0 0 
419.1 0 0 
457.2 0 0 
495.3 0 0 
533.4 0 0 
571.5 0 0 
38.1 0 3.048 
76.2 0 3.048 
114.3 0 3.048 
152.4 0 3.048 
190.5 0 3.048 
228.6 0 3.048 
266.7 0 3.048 
304.8 0 3.048 
342.9 0 3.048 
381 0 3.048 
419.1 0 3.048 
457.2 0 3.048 
495.3 0 3.048 
533.4 0 3.048 
571.5 0 3.048 
38.1 3.048 3.048 
76.2 3.048 3.048 
114.3 3.048 3.048 
152.4 3.048 3.048 
190.5 3.048 3.048 
228.6 3.048 3.048 
266.7 3.048 3.048 
304.8 3.048 3.048 
342.9 3.048 3.048 
381 3.048 3.048 
419.1 3.048 3.048 
457.2 3.048 3.048 
495.3 3.048 3.048 
533.4 3.048 3.048 
571.5 3.048 3.048 
38.1 3.048 0 
76.2 3.048 0 
114.3 3.048 0 
152.4 3.048 0 
190.5 3.048 0 
228.6 3.048 0 
266.7 3.048 0 
304.8 3.048 0 
342.9 3.048 0 
381 3.048 0 
419.1 3.048 0 
457.2 3.048 0 
495.3 3.048 0 
533.4 3.048 0 
571.5 3.048 0 
CELL_DATA 16
SCALARS GLOBAL_ID int 1
LOOKUP_TABLE default
0 
1 
2 
3 
4 
5 
6 
7 
8 
9 
10 
11 
12 
13 
14 
15 
VECTORS centroid_volumes double
19.05 1.524 1.524 
57.15 1.524 1.524 
95.25 1.524 1.524 
133.35 1.524 1.524 
171.45 1.524 1.524 
209.55 1.524 1.524 
247.65 1.524 1.524 
285.75 1.524 1.524 
323.85 1.524 1.524 
361.95 1.524 1.524 
400.05 1.524 1.524 
438.15 1.524 1.524 
476.25 1.524 1.524 
514.35 1.524 1.524 
552.45 1.524 1.524 
590.55 1.524 1.524 
SCALARS flux_grav_volumes double 1
LOOKUP_TABLE default
0 
0 
0 
0 
0 
0 
0 
0 
0 
0 
0 
0 
0 
0 
0 
0 
SCALARS flux_o_volumes double 1
LOOKUP_TABLE default
0 
0 
0 
0 
0 
0 
0 
0 
0 
0 
0 
0 
0 
0 
0 
0 
SCALARS flux_volumes double 1
LOOKUP_TABLE default
0 
0 
0 
0 
0 
0 
0 
0 
0 
0 
0 
0 
0 
0 
0 
0 
SCALARS flux_volumes_test double 1
LOOKUP_TABLE default
0 
0 
0 
0 
0 
0 
0 
0 
0 
0 
0 
0 
0 
0 
0 
0 
SCALARS flux_w_volumes double 1
LOOKUP_TABLE default
0 
0 
0 
0 
0 
0 
0 
0 
0 
0 
0 
0 
0 
0 
0 
0 
SCALARS fw_vol double 1
LOOKUP_TABLE default
0 
0 
0 
0 
0 
0 
0 
0 
0 
0 
0 
0 
0 
0 
0 
0 
SCALARS gama double 1
LOOKUP_TABLE default
10000 
10000 
10000 
10000 
10000 
10000 
10000 
10000 
10000 
10000 
10000 
10000 
10000 
10000 
10000 
10000 
VECTORS hs double
38.1 3.048 3.048 
38.1 3.048 3.048 
38.1 3.048 3.048 
38.1 3.048 3.048 
38.1 3.048 3.048 
38.1 3.048 3.048 
38.1 3.048 3.048 
38.1 3.048 3.048 
38.1 3.048 3.048 
38.1 3.048 3.048 
38.1 3.048 3.048 
38.1 3.048 3.048 
38.1 3.048 3.048 
38.1 3.048 3.048 
38.1 3.048 3.048 
38.1 3.048 3.048 
SCALARS kro double 1
LOOKUP_TABLE default
0 
0 
0 
0 
0 
0 
0 
0 
0 
0 
0 
0 
0 
0 
0 
0 
SCALARS krw double 1
LOOKUP_TABLE default
0 
0 
0 
0 
0 
0 
0 
0 
0 
0 
0 
0 
0 
0 
0 
0 
SCALARS lambda_o double 1
LOOKUP_TABLE default
0 
0 
0 
0 
0 
0 
0 
0 
0 
0 
0 
0 
0 
0 
0 
0 
SCALARS lambda_t double 1
LOOKUP_TABLE default
0 
0 
0 
0 
0 
0 
0 
0 
0 
0 
0 
0 
0 
0 
0 
0 
SCALARS lambda_w double 1
LOOKUP_TABLE default
0 
0 
0 
0 
0 
0 
0 
0 
0 
0 
0 
0 
0 
0 
0 
0 
SCALARS mass_oil_production double 1
LOOKUP_TABLE default
0 
0 
0 
0 
0 
0 
0 
0 
0 
0 
0 
0 
0 
0 
0 
0 
SCALARS mass_water_production double 1
LOOKUP_TABLE default
0 
0 
0 
0 
0 
0 
0 
0 
0 
0 
0 
0 
0 
0 
0 
0 
TENSORS permeability double
4.934617e-13 0 0 0 4.934617e-13 0 0 0 4.934617e-13 
4.934617e-13 0 0 0 4.934617e-13 0 0 0 4.934617e-13 
4.934617e-13 0 0 0 4.934617e-13 0 0 0 4.934617e-13 
4.934617e-13 0 0 0 4.934617e-13 0 0 0 4.934617e-13 
4.934617e-13 0 0 0 4.934617e-13 0 0 0 4.934617e-13 
4.934617e-13 0 0 0 4.934617e-13 0 0 0 4.934617e-13 
4.934617e-13 0 0 0 4.934617e-13 0 0 0 4.934617e-13 
4.934617e-13 0 0 0 4.934617e-13 0 0 0 4.934617e-13 
4.934617e-13 0 0 0 4.934617e-13 0 0 0 4.934617e-13 
4.934617e-13 0 0 0 4.934617e-13 0 0 0 4.934617e-13 
4.934617e-13 0 0 0 4.934617e-13 0 0 0 4.934617e-13 
4.934617e-13 0 0 0 4.934617e-13 0 0 0 4.934617e-13 
4.934617e-13 0 0 0 4.934617e-13 0 0 0 4.934617e-13 
4.934617e-13 0 0 0 4.934617e-13 0 0 0 4.934617e-13 
4.934617e-13 0 0 0 4.934617e-13 0 0 0 4.934617e-13 
4.934617e-13 0 0 0 4.934617e-13 0 0 0 4.934617e-13 
SCALARS poro double 1
LOOKUP_TABLE default
0.2 
0.2 
0.2 
0.2 
0.2 
0.2 
0.2 
0.2 
0.2 
0.2 
0.2 
0.2 
0.2 
0.2 
0.2 
0.2 
SCALARS pressure double 1
LOOKUP_TABLE default
0 
0 
0 
0 
0 
0 
0 
0 
0 
0 
0 
0 
0 
0 
0 
0 
SCALARS saturation double 1
LOOKUP_TABLE default
0.2 
0.2 
0.2 
0.2 
0.2 
0.2 
0.2 
0.2 
0.2 
0.2 
0.2 
0.2 
0.2 
0.2 
0.2 
0.2 
SCALARS saturation_last double 1
LOOKUP_TABLE default
0 
0 
0 
0 
0 
0 
0 
0 
0 
0 
0 
0 
0 
0 
0 
0 
SCALARS test_fw double 1
LOOKUP_TABLE default
0 
0 
0 
0 
0 
0 
0 
0 
0 
0 
0 
0 
0 
0 
0 
0 
SCALARS verif_po double 1
LOOKUP_TABLE default
0 
0 
0 
0 
0 
0 
0 
0 
0 
0 
0 
0 
0 
0 
0 
0 
SCALARS verif_rest double 1
LOOKUP_TABLE default
0 
0 
0 
0 
0 
0 
0 
0 
0 
0 
0 
0 
0 
0 
0 
0 
SCALARS volume double 1
LOOKUP_TABLE default
353.9605824 
353.9605824 
353.9605824 
353.9605824 
353.9605824 
353.9605824 
353.9605824 
353.9605824 
353.9605824 
353.9605824 
353.9605824 
353.9605824 
353.9605824 
353.9605824 
353.9605824 
353.9605824 
VECTORS weight double
0 0 0 
0 0 0 
0 0 0 
0 0 0 
0 0 0 
0 0 0 
0 0 0 
0 0 0 
0 0 0 
0 0 0 
0 0 0 
0 0 0 
0 0 0 
0 0 0 
0 0 0 
0 0 0 
SCALARS P double 1
LOOKUP_TABLE default
13100038.85 
0 
0 
0 
0 
0 
0 
0 
0 
0 
0 
0 
0 
0 
0 
0 
SCALARS PROD int 1
LOOKUP_TABLE default
1 
0 
0 
0 
0 
0 
0 
0 
0 
0 
0 
0 
0 
0 
0 
0 
