# vtk DataFile Version 3.0
MOAB 5.1.1
ASCII
DATASET UNSTRUCTURED_GRID
POINTS 132 double
0 0 0
0 0 3.048
0 3.048 3.048
0 3.048 0
609.6 0 0
609.6 0 3.048
609.6 3.048 3.048
609.6 3.048 0
19.05 0 0
38.1 0 0
57.15 0 0
76.2 0 0
95.25 0 0
114.3 0 0
133.35 0 0
152.4 0 0
171.45 0 0
190.5 0 0
209.55 0 0
228.6 0 0
247.65 0 0
266.7 0 0
285.75 0 0
304.8 0 0
323.85 0 0
342.9 0 0
361.95 0 0
381 0 0
400.05 0 0
419.1 0 0
438.15 0 0
457.2 0 0
476.25 0 0
495.3 0 0
514.35 0 0
533.4 0 0
552.45 0 0
571.5 0 0
590.55 0 0
19.05 0 3.048
38.1 0 3.048
57.15 0 3.048
76.2 0 3.048
95.25 0 3.048
114.3 0 3.048
133.35 0 3.048
152.4 0 3.048
171.45 0 3.048
190.5 0 3.048
209.55 0 3.048
228.6 0 3.048
247.65 0 3.048
266.7 0 3.048
285.75 0 3.048
304.8 0 3.048
323.85 0 3.048
342.9 0 3.048
361.95 0 3.048
381 0 3.048
400.05 0 3.048
419.1 0 3.048
438.15 0 3.048
457.2 0 3.048
476.25 0 3.048
495.3 0 3.048
514.35 0 3.048
533.4 0 3.048
552.45 0 3.048
571.5 0 3.048
590.55 0 3.048
19.05 3.048 3.048
38.1 3.048 3.048
57.15 3.048 3.048
76.2 3.048 3.048
95.25 3.048 3.048
114.3 3.048 3.048
133.35 3.048 3.048
152.4 3.048 3.048
171.45 3.048 3.048
190.5 3.048 3.048
209.55 3.048 3.048
228.6 3.048 3.048
247.65 3.048 3.048
266.7 3.048 3.048
285.75 3.048 3.048
304.8 3.048 3.048
323.85 3.048 3.048
342.9 3.048 3.048
361.95 3.048 3.048
381 3.048 3.048
400.05 3.048 3.048
419.1 3.048 3.048
438.15 3.048 3.048
457.2 3.048 3.048
476.25 3.048 3.048
495.3 3.048 3.048
514.35 3.048 3.048
533.4 3.048 3.048
552.45 3.048 3.048
571.5 3.048 3.048
590.55 3.048 3.048
19.05 3.048 0
38.1 3.048 0
57.15 3.048 0
76.2 3.048 0
95.25 3.048 0
114.3 3.048 0
133.35 3.048 0
152.4 3.048 0
171.45 3.048 0
190.5 3.048 0
209.55 3.048 0
228.6 3.048 0
247.65 3.048 0
266.7 3.048 0
285.75 3.048 0
304.8 3.048 0
323.85 3.048 0
342.9 3.048 0
361.95 3.048 0
381 3.048 0
400.05 3.048 0
419.1 3.048 0
438.15 3.048 0
457.2 3.048 0
476.25 3.048 0
495.3 3.048 0
514.35 3.048 0
533.4 3.048 0
552.45 3.048 0
571.5 3.048 0
590.55 3.048 0
CELLS 32 288
8 2 1 0 3 70 39 8 101
8 70 39 8 101 71 40 9 102
8 71 40 9 102 72 41 10 103
8 72 41 10 103 73 42 11 104
8 73 42 11 104 74 43 12 105
8 74 43 12 105 75 44 13 106
8 75 44 13 106 76 45 14 107
8 76 45 14 107 77 46 15 108
8 77 46 15 108 78 47 16 109
8 78 47 16 109 79 48 17 110
8 79 48 17 110 80 49 18 111
8 80 49 18 111 81 50 19 112
8 81 50 19 112 82 51 20 113
8 82 51 20 113 83 52 21 114
8 83 52 21 114 84 53 22 115
8 84 53 22 115 85 54 23 116
8 85 54 23 116 86 55 24 117
8 86 55 24 117 87 56 25 118
8 87 56 25 118 88 57 26 119
8 88 57 26 119 89 58 27 120
8 89 58 27 120 90 59 28 121
8 90 59 28 121 91 60 29 122
8 91 60 29 122 92 61 30 123
8 92 61 30 123 93 62 31 124
8 93 62 31 124 94 63 32 125
8 94 63 32 125 95 64 33 126
8 95 64 33 126 96 65 34 127
8 96 65 34 127 97 66 35 128
8 97 66 35 128 98 67 36 129
8 98 67 36 129 99 68 37 130
8 99 68 37 130 100 69 38 131
8 100 69 38 131 6 5 4 7
CELL_TYPES 32
12
12
12
12
12
12
12
12
12
12
12
12
12
12
12
12
12
12
12
12
12
12
12
12
12
12
12
12
12
12
12
12
POINT_DATA 132
SCALARS GLOBAL_ID int 1
LOOKUP_TABLE default
0 
1 
2 
3 
4 
5 
6 
7 
8 
9 
10 
11 
12 
13 
14 
15 
16 
17 
18 
19 
20 
21 
22 
23 
24 
25 
26 
27 
28 
29 
30 
31 
32 
33 
34 
35 
36 
37 
38 
39 
40 
41 
42 
43 
44 
45 
46 
47 
48 
49 
50 
51 
52 
53 
54 
55 
56 
57 
58 
59 
60 
61 
62 
63 
64 
65 
66 
67 
68 
69 
70 
71 
72 
73 
74 
75 
76 
77 
78 
79 
80 
81 
82 
83 
84 
85 
86 
87 
88 
89 
90 
91 
92 
93 
94 
95 
96 
97 
98 
99 
100 
101 
102 
103 
104 
105 
106 
107 
108 
109 
110 
111 
112 
113 
114 
115 
116 
117 
118 
119 
120 
121 
122 
123 
124 
125 
126 
127 
128 
129 
130 
131 
VECTORS NODES double
0 0 0 
0 0 3.048 
0 3.048 3.048 
0 3.048 0 
609.6 0 0 
609.6 0 3.048 
609.6 3.048 3.048 
609.6 3.048 0 
19.05 0 0 
38.1 0 0 
57.15 0 0 
76.2 0 0 
95.25 0 0 
114.3 0 0 
133.35 0 0 
152.4 0 0 
171.45 0 0 
190.5 0 0 
209.55 0 0 
228.6 0 0 
247.65 0 0 
266.7 0 0 
285.75 0 0 
304.8 0 0 
323.85 0 0 
342.9 0 0 
361.95 0 0 
381 0 0 
400.05 0 0 
419.1 0 0 
438.15 0 0 
457.2 0 0 
476.25 0 0 
495.3 0 0 
514.35 0 0 
533.4 0 0 
552.45 0 0 
571.5 0 0 
590.55 0 0 
19.05 0 3.048 
38.1 0 3.048 
57.15 0 3.048 
76.2 0 3.048 
95.25 0 3.048 
114.3 0 3.048 
133.35 0 3.048 
152.4 0 3.048 
171.45 0 3.048 
190.5 0 3.048 
209.55 0 3.048 
228.6 0 3.048 
247.65 0 3.048 
266.7 0 3.048 
285.75 0 3.048 
304.8 0 3.048 
323.85 0 3.048 
342.9 0 3.048 
361.95 0 3.048 
381 0 3.048 
400.05 0 3.048 
419.1 0 3.048 
438.15 0 3.048 
457.2 0 3.048 
476.25 0 3.048 
495.3 0 3.048 
514.35 0 3.048 
533.4 0 3.048 
552.45 0 3.048 
571.5 0 3.048 
590.55 0 3.048 
19.05 3.048 3.048 
38.1 3.048 3.048 
57.15 3.048 3.048 
76.2 3.048 3.048 
95.25 3.048 3.048 
114.3 3.048 3.048 
133.35 3.048 3.048 
152.4 3.048 3.048 
171.45 3.048 3.048 
190.5 3.048 3.048 
209.55 3.048 3.048 
228.6 3.048 3.048 
247.65 3.048 3.048 
266.7 3.048 3.048 
285.75 3.048 3.048 
304.8 3.048 3.048 
323.85 3.048 3.048 
342.9 3.048 3.048 
361.95 3.048 3.048 
381 3.048 3.048 
400.05 3.048 3.048 
419.1 3.048 3.048 
438.15 3.048 3.048 
457.2 3.048 3.048 
476.25 3.048 3.048 
495.3 3.048 3.048 
514.35 3.048 3.048 
533.4 3.048 3.048 
552.45 3.048 3.048 
571.5 3.048 3.048 
590.55 3.048 3.048 
19.05 3.048 0 
38.1 3.048 0 
57.15 3.048 0 
76.2 3.048 0 
95.25 3.048 0 
114.3 3.048 0 
133.35 3.048 0 
152.4 3.048 0 
171.45 3.048 0 
190.5 3.048 0 
209.55 3.048 0 
228.6 3.048 0 
247.65 3.048 0 
266.7 3.048 0 
285.75 3.048 0 
304.8 3.048 0 
323.85 3.048 0 
342.9 3.048 0 
361.95 3.048 0 
381 3.048 0 
400.05 3.048 0 
419.1 3.048 0 
438.15 3.048 0 
457.2 3.048 0 
476.25 3.048 0 
495.3 3.048 0 
514.35 3.048 0 
533.4 3.048 0 
552.45 3.048 0 
571.5 3.048 0 
590.55 3.048 0 
VECTORS centroid_nodes double
0 0 0 
0 0 3.048 
0 3.048 3.048 
0 3.048 0 
609.6 0 0 
609.6 0 3.048 
609.6 3.048 3.048 
609.6 3.048 0 
19.05 0 0 
38.1 0 0 
57.15 0 0 
76.2 0 0 
95.25 0 0 
114.3 0 0 
133.35 0 0 
152.4 0 0 
171.45 0 0 
190.5 0 0 
209.55 0 0 
228.6 0 0 
247.65 0 0 
266.7 0 0 
285.75 0 0 
304.8 0 0 
323.85 0 0 
342.9 0 0 
361.95 0 0 
381 0 0 
400.05 0 0 
419.1 0 0 
438.15 0 0 
457.2 0 0 
476.25 0 0 
495.3 0 0 
514.35 0 0 
533.4 0 0 
552.45 0 0 
571.5 0 0 
590.55 0 0 
19.05 0 3.048 
38.1 0 3.048 
57.15 0 3.048 
76.2 0 3.048 
95.25 0 3.048 
114.3 0 3.048 
133.35 0 3.048 
152.4 0 3.048 
171.45 0 3.048 
190.5 0 3.048 
209.55 0 3.048 
228.6 0 3.048 
247.65 0 3.048 
266.7 0 3.048 
285.75 0 3.048 
304.8 0 3.048 
323.85 0 3.048 
342.9 0 3.048 
361.95 0 3.048 
381 0 3.048 
400.05 0 3.048 
419.1 0 3.048 
438.15 0 3.048 
457.2 0 3.048 
476.25 0 3.048 
495.3 0 3.048 
514.35 0 3.048 
533.4 0 3.048 
552.45 0 3.048 
571.5 0 3.048 
590.55 0 3.048 
19.05 3.048 3.048 
38.1 3.048 3.048 
57.15 3.048 3.048 
76.2 3.048 3.048 
95.25 3.048 3.048 
114.3 3.048 3.048 
133.35 3.048 3.048 
152.4 3.048 3.048 
171.45 3.048 3.048 
190.5 3.048 3.048 
209.55 3.048 3.048 
228.6 3.048 3.048 
247.65 3.048 3.048 
266.7 3.048 3.048 
285.75 3.048 3.048 
304.8 3.048 3.048 
323.85 3.048 3.048 
342.9 3.048 3.048 
361.95 3.048 3.048 
381 3.048 3.048 
400.05 3.048 3.048 
419.1 3.048 3.048 
438.15 3.048 3.048 
457.2 3.048 3.048 
476.25 3.048 3.048 
495.3 3.048 3.048 
514.35 3.048 3.048 
533.4 3.048 3.048 
552.45 3.048 3.048 
571.5 3.048 3.048 
590.55 3.048 3.048 
19.05 3.048 0 
38.1 3.048 0 
57.15 3.048 0 
76.2 3.048 0 
95.25 3.048 0 
114.3 3.048 0 
133.35 3.048 0 
152.4 3.048 0 
171.45 3.048 0 
190.5 3.048 0 
209.55 3.048 0 
228.6 3.048 0 
247.65 3.048 0 
266.7 3.048 0 
285.75 3.048 0 
304.8 3.048 0 
323.85 3.048 0 
342.9 3.048 0 
361.95 3.048 0 
381 3.048 0 
400.05 3.048 0 
419.1 3.048 0 
438.15 3.048 0 
457.2 3.048 0 
476.25 3.048 0 
495.3 3.048 0 
514.35 3.048 0 
533.4 3.048 0 
552.45 3.048 0 
571.5 3.048 0 
590.55 3.048 0 
CELL_DATA 32
SCALARS GLOBAL_ID int 1
LOOKUP_TABLE default
0 
1 
2 
3 
4 
5 
6 
7 
8 
9 
10 
11 
12 
13 
14 
15 
16 
17 
18 
19 
20 
21 
22 
23 
24 
25 
26 
27 
28 
29 
30 
31 
VECTORS centroid_volumes double
9.525 1.524 1.524 
28.575 1.524 1.524 
47.625 1.524 1.524 
66.675 1.524 1.524 
85.725 1.524 1.524 
104.775 1.524 1.524 
123.825 1.524 1.524 
142.875 1.524 1.524 
161.925 1.524 1.524 
180.975 1.524 1.524 
200.025 1.524 1.524 
219.075 1.524 1.524 
238.125 1.524 1.524 
257.175 1.524 1.524 
276.225 1.524 1.524 
295.275 1.524 1.524 
314.325 1.524 1.524 
333.375 1.524 1.524 
352.425 1.524 1.524 
371.475 1.524 1.524 
390.525 1.524 1.524 
409.575 1.524 1.524 
428.625 1.524 1.524 
447.675 1.524 1.524 
466.725 1.524 1.524 
485.775 1.524 1.524 
504.825 1.524 1.524 
523.875 1.524 1.524 
542.925 1.524 1.524 
561.975 1.524 1.524 
581.025 1.524 1.524 
600.075 1.524 1.524 
SCALARS flux_grav_volumes double 1
LOOKUP_TABLE default
0 
0 
0 
0 
0 
0 
0 
0 
0 
0 
0 
0 
0 
0 
0 
0 
0 
0 
0 
0 
0 
0 
0 
0 
0 
0 
0 
0 
0 
0 
0 
0 
SCALARS flux_o_volumes double 1
LOOKUP_TABLE default
0 
0 
0 
0 
0 
0 
0 
0 
0 
0 
0 
0 
0 
0 
0 
0 
0 
0 
0 
0 
0 
0 
0 
0 
0 
0 
0 
0 
0 
0 
0 
0 
SCALARS flux_volumes double 1
LOOKUP_TABLE default
0 
0 
0 
0 
0 
0 
0 
0 
0 
0 
0 
0 
0 
0 
0 
0 
0 
0 
0 
0 
0 
0 
0 
0 
0 
0 
0 
0 
0 
0 
0 
0 
SCALARS flux_volumes_test double 1
LOOKUP_TABLE default
0 
0 
0 
0 
0 
0 
0 
0 
0 
0 
0 
0 
0 
0 
0 
0 
0 
0 
0 
0 
0 
0 
0 
0 
0 
0 
0 
0 
0 
0 
0 
0 
SCALARS flux_w_volumes double 1
LOOKUP_TABLE default
0 
0 
0 
0 
0 
0 
0 
0 
0 
0 
0 
0 
0 
0 
0 
0 
0 
0 
0 
0 
0 
0 
0 
0 
0 
0 
0 
0 
0 
0 
0 
0 
SCALARS fw_vol double 1
LOOKUP_TABLE default
0 
0 
0 
0 
0 
0 
0 
0 
0 
0 
0 
0 
0 
0 
0 
0 
0 
0 
0 
0 
0 
0 
0 
0 
0 
0 
0 
0 
0 
0 
0 
0 
SCALARS gama double 1
LOOKUP_TABLE default
10000 
10000 
10000 
10000 
10000 
10000 
10000 
10000 
10000 
10000 
10000 
10000 
10000 
10000 
10000 
10000 
10000 
10000 
10000 
10000 
10000 
10000 
10000 
10000 
10000 
10000 
10000 
10000 
10000 
10000 
10000 
10000 
VECTORS hs double
19.05 3.048 3.048 
19.05 3.048 3.048 
19.05 3.048 3.048 
19.05 3.048 3.048 
19.05 3.048 3.048 
19.05 3.048 3.048 
19.05 3.048 3.048 
19.05 3.048 3.048 
19.05 3.048 3.048 
19.05 3.048 3.048 
19.05 3.048 3.048 
19.05 3.048 3.048 
19.05 3.048 3.048 
19.05 3.048 3.048 
19.05 3.048 3.048 
19.05 3.048 3.048 
19.05 3.048 3.048 
19.05 3.048 3.048 
19.05 3.048 3.048 
19.05 3.048 3.048 
19.05 3.048 3.048 
19.05 3.048 3.048 
19.05 3.048 3.048 
19.05 3.048 3.048 
19.05 3.048 3.048 
19.05 3.048 3.048 
19.05 3.048 3.048 
19.05 3.048 3.048 
19.05 3.048 3.048 
19.05 3.048 3.048 
19.05 3.048 3.048 
19.05 3.048 3.048 
SCALARS kro double 1
LOOKUP_TABLE default
0 
0 
0 
0 
0 
0 
0 
0 
0 
0 
0 
0 
0 
0 
0 
0 
0 
0 
0 
0 
0 
0 
0 
0 
0 
0 
0 
0 
0 
0 
0 
0 
SCALARS krw double 1
LOOKUP_TABLE default
0 
0 
0 
0 
0 
0 
0 
0 
0 
0 
0 
0 
0 
0 
0 
0 
0 
0 
0 
0 
0 
0 
0 
0 
0 
0 
0 
0 
0 
0 
0 
0 
SCALARS lambda_o double 1
LOOKUP_TABLE default
0 
0 
0 
0 
0 
0 
0 
0 
0 
0 
0 
0 
0 
0 
0 
0 
0 
0 
0 
0 
0 
0 
0 
0 
0 
0 
0 
0 
0 
0 
0 
0 
SCALARS lambda_t double 1
LOOKUP_TABLE default
0 
0 
0 
0 
0 
0 
0 
0 
0 
0 
0 
0 
0 
0 
0 
0 
0 
0 
0 
0 
0 
0 
0 
0 
0 
0 
0 
0 
0 
0 
0 
0 
SCALARS lambda_w double 1
LOOKUP_TABLE default
0 
0 
0 
0 
0 
0 
0 
0 
0 
0 
0 
0 
0 
0 
0 
0 
0 
0 
0 
0 
0 
0 
0 
0 
0 
0 
0 
0 
0 
0 
0 
0 
SCALARS mass_oil_production double 1
LOOKUP_TABLE default
0 
0 
0 
0 
0 
0 
0 
0 
0 
0 
0 
0 
0 
0 
0 
0 
0 
0 
0 
0 
0 
0 
0 
0 
0 
0 
0 
0 
0 
0 
0 
0 
SCALARS mass_water_production double 1
LOOKUP_TABLE default
0 
0 
0 
0 
0 
0 
0 
0 
0 
0 
0 
0 
0 
0 
0 
0 
0 
0 
0 
0 
0 
0 
0 
0 
0 
0 
0 
0 
0 
0 
0 
0 
TENSORS permeability double
4.934617e-13 0 0 0 4.934617e-13 0 0 0 4.934617e-13 
4.934617e-13 0 0 0 4.934617e-13 0 0 0 4.934617e-13 
4.934617e-13 0 0 0 4.934617e-13 0 0 0 4.934617e-13 
4.934617e-13 0 0 0 4.934617e-13 0 0 0 4.934617e-13 
4.934617e-13 0 0 0 4.934617e-13 0 0 0 4.934617e-13 
4.934617e-13 0 0 0 4.934617e-13 0 0 0 4.934617e-13 
4.934617e-13 0 0 0 4.934617e-13 0 0 0 4.934617e-13 
4.934617e-13 0 0 0 4.934617e-13 0 0 0 4.934617e-13 
4.934617e-13 0 0 0 4.934617e-13 0 0 0 4.934617e-13 
4.934617e-13 0 0 0 4.934617e-13 0 0 0 4.934617e-13 
4.934617e-13 0 0 0 4.934617e-13 0 0 0 4.934617e-13 
4.934617e-13 0 0 0 4.934617e-13 0 0 0 4.934617e-13 
4.934617e-13 0 0 0 4.934617e-13 0 0 0 4.934617e-13 
4.934617e-13 0 0 0 4.934617e-13 0 0 0 4.934617e-13 
4.934617e-13 0 0 0 4.934617e-13 0 0 0 4.934617e-13 
4.934617e-13 0 0 0 4.934617e-13 0 0 0 4.934617e-13 
4.934617e-13 0 0 0 4.934617e-13 0 0 0 4.934617e-13 
4.934617e-13 0 0 0 4.934617e-13 0 0 0 4.934617e-13 
4.934617e-13 0 0 0 4.934617e-13 0 0 0 4.934617e-13 
4.934617e-13 0 0 0 4.934617e-13 0 0 0 4.934617e-13 
4.934617e-13 0 0 0 4.934617e-13 0 0 0 4.934617e-13 
4.934617e-13 0 0 0 4.934617e-13 0 0 0 4.934617e-13 
4.934617e-13 0 0 0 4.934617e-13 0 0 0 4.934617e-13 
4.934617e-13 0 0 0 4.934617e-13 0 0 0 4.934617e-13 
4.934617e-13 0 0 0 4.934617e-13 0 0 0 4.934617e-13 
4.934617e-13 0 0 0 4.934617e-13 0 0 0 4.934617e-13 
4.934617e-13 0 0 0 4.934617e-13 0 0 0 4.934617e-13 
4.934617e-13 0 0 0 4.934617e-13 0 0 0 4.934617e-13 
4.934617e-13 0 0 0 4.934617e-13 0 0 0 4.934617e-13 
4.934617e-13 0 0 0 4.934617e-13 0 0 0 4.934617e-13 
4.934617e-13 0 0 0 4.934617e-13 0 0 0 4.934617e-13 
4.934617e-13 0 0 0 4.934617e-13 0 0 0 4.934617e-13 
SCALARS poro double 1
LOOKUP_TABLE default
0.2 
0.2 
0.2 
0.2 
0.2 
0.2 
0.2 
0.2 
0.2 
0.2 
0.2 
0.2 
0.2 
0.2 
0.2 
0.2 
0.2 
0.2 
0.2 
0.2 
0.2 
0.2 
0.2 
0.2 
0.2 
0.2 
0.2 
0.2 
0.2 
0.2 
0.2 
0.2 
SCALARS pressure double 1
LOOKUP_TABLE default
0 
0 
0 
0 
0 
0 
0 
0 
0 
0 
0 
0 
0 
0 
0 
0 
0 
0 
0 
0 
0 
0 
0 
0 
0 
0 
0 
0 
0 
0 
0 
0 
SCALARS saturation double 1
LOOKUP_TABLE default
0.2 
0.2 
0.2 
0.2 
0.2 
0.2 
0.2 
0.2 
0.2 
0.2 
0.2 
0.2 
0.2 
0.2 
0.2 
0.2 
0.2 
0.2 
0.2 
0.2 
0.2 
0.2 
0.2 
0.2 
0.2 
0.2 
0.2 
0.2 
0.2 
0.2 
0.2 
0.2 
SCALARS saturation_last double 1
LOOKUP_TABLE default
0 
0 
0 
0 
0 
0 
0 
0 
0 
0 
0 
0 
0 
0 
0 
0 
0 
0 
0 
0 
0 
0 
0 
0 
0 
0 
0 
0 
0 
0 
0 
0 
SCALARS test_fw double 1
LOOKUP_TABLE default
0 
0 
0 
0 
0 
0 
0 
0 
0 
0 
0 
0 
0 
0 
0 
0 
0 
0 
0 
0 
0 
0 
0 
0 
0 
0 
0 
0 
0 
0 
0 
0 
SCALARS verif_po double 1
LOOKUP_TABLE default
0 
0 
0 
0 
0 
0 
0 
0 
0 
0 
0 
0 
0 
0 
0 
0 
0 
0 
0 
0 
0 
0 
0 
0 
0 
0 
0 
0 
0 
0 
0 
0 
SCALARS verif_rest double 1
LOOKUP_TABLE default
0 
0 
0 
0 
0 
0 
0 
0 
0 
0 
0 
0 
0 
0 
0 
0 
0 
0 
0 
0 
0 
0 
0 
0 
0 
0 
0 
0 
0 
0 
0 
0 
SCALARS volume double 1
LOOKUP_TABLE default
176.9802912 
176.9802912 
176.9802912 
176.9802912 
176.9802912 
176.9802912 
176.9802912 
176.9802912 
176.9802912 
176.9802912 
176.9802912 
176.9802912 
176.9802912 
176.9802912 
176.9802912 
176.9802912 
176.9802912 
176.9802912 
176.9802912 
176.9802912 
176.9802912 
176.9802912 
176.9802912 
176.9802912 
176.9802912 
176.9802912 
176.9802912 
176.9802912 
176.9802912 
176.9802912 
176.9802912 
176.9802912 
VECTORS weight double
0 0 0 
0 0 0 
0 0 0 
0 0 0 
0 0 0 
0 0 0 
0 0 0 
0 0 0 
0 0 0 
0 0 0 
0 0 0 
0 0 0 
0 0 0 
0 0 0 
0 0 0 
0 0 0 
0 0 0 
0 0 0 
0 0 0 
0 0 0 
0 0 0 
0 0 0 
0 0 0 
0 0 0 
0 0 0 
0 0 0 
0 0 0 
0 0 0 
0 0 0 
0 0 0 
0 0 0 
0 0 0 
SCALARS P double 1
LOOKUP_TABLE default
13100038.85 
0 
0 
0 
0 
0 
0 
0 
0 
0 
0 
0 
0 
0 
0 
0 
0 
0 
0 
0 
0 
0 
0 
0 
0 
0 
0 
0 
0 
0 
0 
0 
SCALARS PROD int 1
LOOKUP_TABLE default
1 
0 
0 
0 
0 
0 
0 
0 
0 
0 
0 
0 
0 
0 
0 
0 
0 
0 
0 
0 
0 
0 
0 
0 
0 
0 
0 
0 
0 
0 
0 
0 
