# vtk DataFile Version 3.0
MOAB 5.1.1
ASCII
DATASET UNSTRUCTURED_GRID
POINTS 36 double
0 0 0
0 0 -0.03048
0 0.03048 -0.03048
0 0.03048 0
0.6096 0 0
0.6096 0 -0.03048
0.6096 0.03048 -0.03048
0.6096 0.03048 0
0.0762 0 0
0.1524 0 0
0.2286 0 0
0.3048 0 0
0.381 0 0
0.4572 0 0
0.5334 0 0
0.0762 0 -0.03048
0.1524 0 -0.03048
0.2286 0 -0.03048
0.3048 0 -0.03048
0.381 0 -0.03048
0.4572 0 -0.03048
0.5334 0 -0.03048
0.0762 0.03048 -0.03048
0.1524 0.03048 -0.03048
0.2286 0.03048 -0.03048
0.3048 0.03048 -0.03048
0.381 0.03048 -0.03048
0.4572 0.03048 -0.03048
0.5334 0.03048 -0.03048
0.0762 0.03048 0
0.1524 0.03048 0
0.2286 0.03048 0
0.3048 0.03048 0
0.381 0.03048 0
0.4572 0.03048 0
0.5334 0.03048 0
CELLS 8 72
8 0 1 2 3 8 15 22 29
8 8 15 22 29 9 16 23 30
8 9 16 23 30 10 17 24 31
8 10 17 24 31 11 18 25 32
8 11 18 25 32 12 19 26 33
8 12 19 26 33 13 20 27 34
8 13 20 27 34 14 21 28 35
8 14 21 28 35 4 5 6 7
CELL_TYPES 8
12
12
12
12
12
12
12
12
POINT_DATA 36
SCALARS GLOBAL_ID int 1
LOOKUP_TABLE default
0 
1 
2 
3 
4 
5 
6 
7 
8 
9 
10 
11 
12 
13 
14 
15 
16 
17 
18 
19 
20 
21 
22 
23 
24 
25 
26 
27 
28 
29 
30 
31 
32 
33 
34 
35 
VECTORS NODES double
0 0 0 
0 0 -0.03048 
0 0.03048 -0.03048 
0 0.03048 0 
0.6096 0 0 
0.6096 0 -0.03048 
0.6096 0.03048 -0.03048 
0.6096 0.03048 0 
0.0762 0 0 
0.1524 0 0 
0.2286 0 0 
0.3048 0 0 
0.381 0 0 
0.4572 0 0 
0.5334 0 0 
0.0762 0 -0.03048 
0.1524 0 -0.03048 
0.2286 0 -0.03048 
0.3048 0 -0.03048 
0.381 0 -0.03048 
0.4572 0 -0.03048 
0.5334 0 -0.03048 
0.0762 0.03048 -0.03048 
0.1524 0.03048 -0.03048 
0.2286 0.03048 -0.03048 
0.3048 0.03048 -0.03048 
0.381 0.03048 -0.03048 
0.4572 0.03048 -0.03048 
0.5334 0.03048 -0.03048 
0.0762 0.03048 0 
0.1524 0.03048 0 
0.2286 0.03048 0 
0.3048 0.03048 0 
0.381 0.03048 0 
0.4572 0.03048 0 
0.5334 0.03048 0 
VECTORS centroid_nodes double
0 0 0 
0 0 -0.03048 
0 0.03048 -0.03048 
0 0.03048 0 
0.6096 0 0 
0.6096 0 -0.03048 
0.6096 0.03048 -0.03048 
0.6096 0.03048 0 
0.0762 0 0 
0.1524 0 0 
0.2286 0 0 
0.3048 0 0 
0.381 0 0 
0.4572 0 0 
0.5334 0 0 
0.0762 0 -0.03048 
0.1524 0 -0.03048 
0.2286 0 -0.03048 
0.3048 0 -0.03048 
0.381 0 -0.03048 
0.4572 0 -0.03048 
0.5334 0 -0.03048 
0.0762 0.03048 -0.03048 
0.1524 0.03048 -0.03048 
0.2286 0.03048 -0.03048 
0.3048 0.03048 -0.03048 
0.381 0.03048 -0.03048 
0.4572 0.03048 -0.03048 
0.5334 0.03048 -0.03048 
0.0762 0.03048 0 
0.1524 0.03048 0 
0.2286 0.03048 0 
0.3048 0.03048 0 
0.381 0.03048 0 
0.4572 0.03048 0 
0.5334 0.03048 0 
CELL_DATA 8
SCALARS GLOBAL_ID int 1
LOOKUP_TABLE default
0 
1 
2 
3 
4 
5 
6 
7 
VECTORS centroid_volumes double
0.0381 0.01524 -0.01524 
0.1143 0.01524 -0.01524 
0.1905 0.01524 -0.01524 
0.2667 0.01524 -0.01524 
0.3429 0.01524 -0.01524 
0.4191 0.01524 -0.01524 
0.4953 0.01524 -0.01524 
0.5715 0.01524 -0.01524 
SCALARS flux_grav_volumes double 1
LOOKUP_TABLE default
0 
0 
0 
0 
0 
0 
0 
0 
SCALARS flux_o_volumes double 1
LOOKUP_TABLE default
0 
0 
0 
0 
0 
0 
0 
0 
SCALARS flux_volumes double 1
LOOKUP_TABLE default
0 
0 
0 
0 
0 
0 
0 
0 
SCALARS flux_volumes_test double 1
LOOKUP_TABLE default
0 
0 
0 
0 
0 
0 
0 
0 
SCALARS flux_w_volumes double 1
LOOKUP_TABLE default
0 
0 
0 
0 
0 
0 
0 
0 
SCALARS fw_vol double 1
LOOKUP_TABLE default
0 
0 
0 
0 
0 
0 
0 
0 
SCALARS gama double 1
LOOKUP_TABLE default
10000 
10000 
10000 
10000 
10000 
10000 
10000 
10000 
VECTORS hs double
0.0762 0.03048 0.03048 
0.0762 0.03048 0.03048 
0.0762 0.03048 0.03048 
0.0762 0.03048 0.03048 
0.0762 0.03048 0.03048 
0.0762 0.03048 0.03048 
0.0762 0.03048 0.03048 
0.0762 0.03048 0.03048 
SCALARS kro double 1
LOOKUP_TABLE default
0 
0 
0 
0 
0 
0 
0 
0 
SCALARS krw double 1
LOOKUP_TABLE default
0 
0 
0 
0 
0 
0 
0 
0 
SCALARS lambda_o double 1
LOOKUP_TABLE default
0 
0 
0 
0 
0 
0 
0 
0 
SCALARS lambda_t double 1
LOOKUP_TABLE default
0 
0 
0 
0 
0 
0 
0 
0 
SCALARS lambda_w double 1
LOOKUP_TABLE default
0 
0 
0 
0 
0 
0 
0 
0 
SCALARS mass_oil_production double 1
LOOKUP_TABLE default
0 
0 
0 
0 
0 
0 
0 
0 
SCALARS mass_water_production double 1
LOOKUP_TABLE default
0 
0 
0 
0 
0 
0 
0 
0 
TENSORS permeability double
4.934617e-13 0 0 0 4.934617e-13 0 0 0 4.934617e-13 
4.934617e-13 0 0 0 4.934617e-13 0 0 0 4.934617e-13 
4.934617e-13 0 0 0 4.934617e-13 0 0 0 4.934617e-13 
4.934617e-13 0 0 0 4.934617e-13 0 0 0 4.934617e-13 
4.934617e-13 0 0 0 4.934617e-13 0 0 0 4.934617e-13 
4.934617e-13 0 0 0 4.934617e-13 0 0 0 4.934617e-13 
4.934617e-13 0 0 0 4.934617e-13 0 0 0 4.934617e-13 
4.934617e-13 0 0 0 4.934617e-13 0 0 0 4.934617e-13 
SCALARS poro double 1
LOOKUP_TABLE default
1 
1 
1 
1 
1 
1 
1 
1 
SCALARS pressure double 1
LOOKUP_TABLE default
0 
0 
0 
0 
0 
0 
0 
0 
SCALARS saturation double 1
LOOKUP_TABLE default
0.79896872 
0.761196062 
0.7401953139 
0.7147369761 
0.690368627 
0.6253006096 
0.3421290908 
0.1252797283 
SCALARS saturation_last double 1
LOOKUP_TABLE default
0 
0 
0 
0 
0 
0 
0 
0 
SCALARS test_fw double 1
LOOKUP_TABLE default
0 
0 
0 
0 
0 
0 
0 
0 
SCALARS verif_po double 1
LOOKUP_TABLE default
0 
0 
0 
0 
0 
0 
0 
0 
SCALARS verif_rest double 1
LOOKUP_TABLE default
0 
0 
0 
0 
0 
0 
0 
0 
SCALARS volume double 1
LOOKUP_TABLE default
7.079211648e-05 
7.079211648e-05 
7.079211648e-05 
7.079211648e-05 
7.079211648e-05 
7.079211648e-05 
7.079211648e-05 
7.079211648e-05 
VECTORS weight double
0 0 0 
0 0 0 
0 0 0 
0 0 0 
0 0 0 
0 0 0 
0 0 0 
0 0 0 
SCALARS P double 1
LOOKUP_TABLE default
0 
0 
0 
0 
0 
0 
0 
25579000 
SCALARS Q double 1
LOOKUP_TABLE default
0 
0 
0 
0 
0 
0 
0 
0 
SCALARS INJ int 1
LOOKUP_TABLE default
1 
0 
0 
0 
0 
0 
0 
0 
SCALARS PROD int 1
LOOKUP_TABLE default
0 
0 
0 
0 
0 
0 
0 
1 
