# vtk DataFile Version 3.0
MOAB 5.1.1
ASCII
DATASET UNSTRUCTURED_GRID
POINTS 516 double
0 0 0
0 0 -0.03048
0 0.03048 -0.03048
0 0.03048 0
0.6096 0 0
0.6096 0 -0.03048
0.6096 0.03048 -0.03048
0.6096 0.03048 0
0.0047625 0 0
0.009525 0 0
0.0142875 0 0
0.01905 0 0
0.0238125 0 0
0.028575 0 0
0.0333375 0 0
0.0381 0 0
0.0428625 0 0
0.047625 0 0
0.0523875 0 0
0.05715 0 0
0.0619125 0 0
0.066675 0 0
0.0714375 0 0
0.0762 0 0
0.0809625 0 0
0.085725 0 0
0.0904875 0 0
0.09525 0 0
0.1000125 0 0
0.104775 0 0
0.1095375 0 0
0.1143 0 0
0.1190625 0 0
0.123825 0 0
0.1285875 0 0
0.13335 0 0
0.1381125 0 0
0.142875 0 0
0.1476375 0 0
0.1524 0 0
0.1571625 0 0
0.161925 0 0
0.1666875 0 0
0.17145 0 0
0.1762125 0 0
0.180975 0 0
0.1857375 0 0
0.1905 0 0
0.1952625 0 0
0.200025 0 0
0.2047875 0 0
0.20955 0 0
0.2143125 0 0
0.219075 0 0
0.2238375 0 0
0.2286 0 0
0.2333625 0 0
0.238125 0 0
0.2428875 0 0
0.24765 0 0
0.2524125 0 0
0.257175 0 0
0.2619375 0 0
0.2667 0 0
0.2714625 0 0
0.276225 0 0
0.2809875 0 0
0.28575 0 0
0.2905125 0 0
0.295275 0 0
0.3000375 0 0
0.3048 0 0
0.3095625 0 0
0.314325 0 0
0.3190875 0 0
0.32385 0 0
0.3286125 0 0
0.333375 0 0
0.3381375 0 0
0.3429 0 0
0.3476625 0 0
0.352425 0 0
0.3571875 0 0
0.36195 0 0
0.3667125 0 0
0.371475 0 0
0.3762375 0 0
0.381 0 0
0.3857625 0 0
0.390525 0 0
0.3952875 0 0
0.40005 0 0
0.4048125 0 0
0.409575 0 0
0.4143375 0 0
0.4191 0 0
0.4238625 0 0
0.428625 0 0
0.4333875 0 0
0.43815 0 0
0.4429125 0 0
0.447675 0 0
0.4524375 0 0
0.4572 0 0
0.4619625 0 0
0.466725 0 0
0.4714875 0 0
0.47625 0 0
0.4810125 0 0
0.485775 0 0
0.4905375 0 0
0.4953 0 0
0.5000625 0 0
0.504825 0 0
0.5095875 0 0
0.51435 0 0
0.5191125 0 0
0.523875 0 0
0.5286375 0 0
0.5334 0 0
0.5381625 0 0
0.542925 0 0
0.5476875 0 0
0.55245 0 0
0.5572125 0 0
0.561975 0 0
0.5667375 0 0
0.5715 0 0
0.5762625 0 0
0.581025 0 0
0.5857875 0 0
0.59055 0 0
0.5953125 0 0
0.600075 0 0
0.6048375 0 0
0.0047625 0 -0.03048
0.009525 0 -0.03048
0.0142875 0 -0.03048
0.01905 0 -0.03048
0.0238125 0 -0.03048
0.028575 0 -0.03048
0.0333375 0 -0.03048
0.0381 0 -0.03048
0.0428625 0 -0.03048
0.047625 0 -0.03048
0.0523875 0 -0.03048
0.05715 0 -0.03048
0.0619125 0 -0.03048
0.066675 0 -0.03048
0.0714375 0 -0.03048
0.0762 0 -0.03048
0.0809625 0 -0.03048
0.085725 0 -0.03048
0.0904875 0 -0.03048
0.09525 0 -0.03048
0.1000125 0 -0.03048
0.104775 0 -0.03048
0.1095375 0 -0.03048
0.1143 0 -0.03048
0.1190625 0 -0.03048
0.123825 0 -0.03048
0.1285875 0 -0.03048
0.13335 0 -0.03048
0.1381125 0 -0.03048
0.142875 0 -0.03048
0.1476375 0 -0.03048
0.1524 0 -0.03048
0.1571625 0 -0.03048
0.161925 0 -0.03048
0.1666875 0 -0.03048
0.17145 0 -0.03048
0.1762125 0 -0.03048
0.180975 0 -0.03048
0.1857375 0 -0.03048
0.1905 0 -0.03048
0.1952625 0 -0.03048
0.200025 0 -0.03048
0.2047875 0 -0.03048
0.20955 0 -0.03048
0.2143125 0 -0.03048
0.219075 0 -0.03048
0.2238375 0 -0.03048
0.2286 0 -0.03048
0.2333625 0 -0.03048
0.238125 0 -0.03048
0.2428875 0 -0.03048
0.24765 0 -0.03048
0.2524125 0 -0.03048
0.257175 0 -0.03048
0.2619375 0 -0.03048
0.2667 0 -0.03048
0.2714625 0 -0.03048
0.276225 0 -0.03048
0.2809875 0 -0.03048
0.28575 0 -0.03048
0.2905125 0 -0.03048
0.295275 0 -0.03048
0.3000375 0 -0.03048
0.3048 0 -0.03048
0.3095625 0 -0.03048
0.314325 0 -0.03048
0.3190875 0 -0.03048
0.32385 0 -0.03048
0.3286125 0 -0.03048
0.333375 0 -0.03048
0.3381375 0 -0.03048
0.3429 0 -0.03048
0.3476625 0 -0.03048
0.352425 0 -0.03048
0.3571875 0 -0.03048
0.36195 0 -0.03048
0.3667125 0 -0.03048
0.371475 0 -0.03048
0.3762375 0 -0.03048
0.381 0 -0.03048
0.3857625 0 -0.03048
0.390525 0 -0.03048
0.3952875 0 -0.03048
0.40005 0 -0.03048
0.4048125 0 -0.03048
0.409575 0 -0.03048
0.4143375 0 -0.03048
0.4191 0 -0.03048
0.4238625 0 -0.03048
0.428625 0 -0.03048
0.4333875 0 -0.03048
0.43815 0 -0.03048
0.4429125 0 -0.03048
0.447675 0 -0.03048
0.4524375 0 -0.03048
0.4572 0 -0.03048
0.4619625 0 -0.03048
0.466725 0 -0.03048
0.4714875 0 -0.03048
0.47625 0 -0.03048
0.4810125 0 -0.03048
0.485775 0 -0.03048
0.4905375 0 -0.03048
0.4953 0 -0.03048
0.5000625 0 -0.03048
0.504825 0 -0.03048
0.5095875 0 -0.03048
0.51435 0 -0.03048
0.5191125 0 -0.03048
0.523875 0 -0.03048
0.5286375 0 -0.03048
0.5334 0 -0.03048
0.5381625 0 -0.03048
0.542925 0 -0.03048
0.5476875 0 -0.03048
0.55245 0 -0.03048
0.5572125 0 -0.03048
0.561975 0 -0.03048
0.5667375 0 -0.03048
0.5715 0 -0.03048
0.5762625 0 -0.03048
0.581025 0 -0.03048
0.5857875 0 -0.03048
0.59055 0 -0.03048
0.5953125 0 -0.03048
0.600075 0 -0.03048
0.6048375 0 -0.03048
0.0047625 0.03048 -0.03048
0.009525 0.03048 -0.03048
0.0142875 0.03048 -0.03048
0.01905 0.03048 -0.03048
0.0238125 0.03048 -0.03048
0.028575 0.03048 -0.03048
0.0333375 0.03048 -0.03048
0.0381 0.03048 -0.03048
0.0428625 0.03048 -0.03048
0.047625 0.03048 -0.03048
0.0523875 0.03048 -0.03048
0.05715 0.03048 -0.03048
0.0619125 0.03048 -0.03048
0.066675 0.03048 -0.03048
0.0714375 0.03048 -0.03048
0.0762 0.03048 -0.03048
0.0809625 0.03048 -0.03048
0.085725 0.03048 -0.03048
0.0904875 0.03048 -0.03048
0.09525 0.03048 -0.03048
0.1000125 0.03048 -0.03048
0.104775 0.03048 -0.03048
0.1095375 0.03048 -0.03048
0.1143 0.03048 -0.03048
0.1190625 0.03048 -0.03048
0.123825 0.03048 -0.03048
0.1285875 0.03048 -0.03048
0.13335 0.03048 -0.03048
0.1381125 0.03048 -0.03048
0.142875 0.03048 -0.03048
0.1476375 0.03048 -0.03048
0.1524 0.03048 -0.03048
0.1571625 0.03048 -0.03048
0.161925 0.03048 -0.03048
0.1666875 0.03048 -0.03048
0.17145 0.03048 -0.03048
0.1762125 0.03048 -0.03048
0.180975 0.03048 -0.03048
0.1857375 0.03048 -0.03048
0.1905 0.03048 -0.03048
0.1952625 0.03048 -0.03048
0.200025 0.03048 -0.03048
0.2047875 0.03048 -0.03048
0.20955 0.03048 -0.03048
0.2143125 0.03048 -0.03048
0.219075 0.03048 -0.03048
0.2238375 0.03048 -0.03048
0.2286 0.03048 -0.03048
0.2333625 0.03048 -0.03048
0.238125 0.03048 -0.03048
0.2428875 0.03048 -0.03048
0.24765 0.03048 -0.03048
0.2524125 0.03048 -0.03048
0.257175 0.03048 -0.03048
0.2619375 0.03048 -0.03048
0.2667 0.03048 -0.03048
0.2714625 0.03048 -0.03048
0.276225 0.03048 -0.03048
0.2809875 0.03048 -0.03048
0.28575 0.03048 -0.03048
0.2905125 0.03048 -0.03048
0.295275 0.03048 -0.03048
0.3000375 0.03048 -0.03048
0.3048 0.03048 -0.03048
0.3095625 0.03048 -0.03048
0.314325 0.03048 -0.03048
0.3190875 0.03048 -0.03048
0.32385 0.03048 -0.03048
0.3286125 0.03048 -0.03048
0.333375 0.03048 -0.03048
0.3381375 0.03048 -0.03048
0.3429 0.03048 -0.03048
0.3476625 0.03048 -0.03048
0.352425 0.03048 -0.03048
0.3571875 0.03048 -0.03048
0.36195 0.03048 -0.03048
0.3667125 0.03048 -0.03048
0.371475 0.03048 -0.03048
0.3762375 0.03048 -0.03048
0.381 0.03048 -0.03048
0.3857625 0.03048 -0.03048
0.390525 0.03048 -0.03048
0.3952875 0.03048 -0.03048
0.40005 0.03048 -0.03048
0.4048125 0.03048 -0.03048
0.409575 0.03048 -0.03048
0.4143375 0.03048 -0.03048
0.4191 0.03048 -0.03048
0.4238625 0.03048 -0.03048
0.428625 0.03048 -0.03048
0.4333875 0.03048 -0.03048
0.43815 0.03048 -0.03048
0.4429125 0.03048 -0.03048
0.447675 0.03048 -0.03048
0.4524375 0.03048 -0.03048
0.4572 0.03048 -0.03048
0.4619625 0.03048 -0.03048
0.466725 0.03048 -0.03048
0.4714875 0.03048 -0.03048
0.47625 0.03048 -0.03048
0.4810125 0.03048 -0.03048
0.485775 0.03048 -0.03048
0.4905375 0.03048 -0.03048
0.4953 0.03048 -0.03048
0.5000625 0.03048 -0.03048
0.504825 0.03048 -0.03048
0.5095875 0.03048 -0.03048
0.51435 0.03048 -0.03048
0.5191125 0.03048 -0.03048
0.523875 0.03048 -0.03048
0.5286375 0.03048 -0.03048
0.5334 0.03048 -0.03048
0.5381625 0.03048 -0.03048
0.542925 0.03048 -0.03048
0.5476875 0.03048 -0.03048
0.55245 0.03048 -0.03048
0.5572125 0.03048 -0.03048
0.561975 0.03048 -0.03048
0.5667375 0.03048 -0.03048
0.5715 0.03048 -0.03048
0.5762625 0.03048 -0.03048
0.581025 0.03048 -0.03048
0.5857875 0.03048 -0.03048
0.59055 0.03048 -0.03048
0.5953125 0.03048 -0.03048
0.600075 0.03048 -0.03048
0.6048375 0.03048 -0.03048
0.0047625 0.03048 0
0.009525 0.03048 0
0.0142875 0.03048 0
0.01905 0.03048 0
0.0238125 0.03048 0
0.028575 0.03048 0
0.0333375 0.03048 0
0.0381 0.03048 0
0.0428625 0.03048 0
0.047625 0.03048 0
0.0523875 0.03048 0
0.05715 0.03048 0
0.0619125 0.03048 0
0.066675 0.03048 0
0.0714375 0.03048 0
0.0762 0.03048 0
0.0809625 0.03048 0
0.085725 0.03048 0
0.0904875 0.03048 0
0.09525 0.03048 0
0.1000125 0.03048 0
0.104775 0.03048 0
0.1095375 0.03048 0
0.1143 0.03048 0
0.1190625 0.03048 0
0.123825 0.03048 0
0.1285875 0.03048 0
0.13335 0.03048 0
0.1381125 0.03048 0
0.142875 0.03048 0
0.1476375 0.03048 0
0.1524 0.03048 0
0.1571625 0.03048 0
0.161925 0.03048 0
0.1666875 0.03048 0
0.17145 0.03048 0
0.1762125 0.03048 0
0.180975 0.03048 0
0.1857375 0.03048 0
0.1905 0.03048 0
0.1952625 0.03048 0
0.200025 0.03048 0
0.2047875 0.03048 0
0.20955 0.03048 0
0.2143125 0.03048 0
0.219075 0.03048 0
0.2238375 0.03048 0
0.2286 0.03048 0
0.2333625 0.03048 0
0.238125 0.03048 0
0.2428875 0.03048 0
0.24765 0.03048 0
0.2524125 0.03048 0
0.257175 0.03048 0
0.2619375 0.03048 0
0.2667 0.03048 0
0.2714625 0.03048 0
0.276225 0.03048 0
0.2809875 0.03048 0
0.28575 0.03048 0
0.2905125 0.03048 0
0.295275 0.03048 0
0.3000375 0.03048 0
0.3048 0.03048 0
0.3095625 0.03048 0
0.314325 0.03048 0
0.3190875 0.03048 0
0.32385 0.03048 0
0.3286125 0.03048 0
0.333375 0.03048 0
0.3381375 0.03048 0
0.3429 0.03048 0
0.3476625 0.03048 0
0.352425 0.03048 0
0.3571875 0.03048 0
0.36195 0.03048 0
0.3667125 0.03048 0
0.371475 0.03048 0
0.3762375 0.03048 0
0.381 0.03048 0
0.3857625 0.03048 0
0.390525 0.03048 0
0.3952875 0.03048 0
0.40005 0.03048 0
0.4048125 0.03048 0
0.409575 0.03048 0
0.4143375 0.03048 0
0.4191 0.03048 0
0.4238625 0.03048 0
0.428625 0.03048 0
0.4333875 0.03048 0
0.43815 0.03048 0
0.4429125 0.03048 0
0.447675 0.03048 0
0.4524375 0.03048 0
0.4572 0.03048 0
0.4619625 0.03048 0
0.466725 0.03048 0
0.4714875 0.03048 0
0.47625 0.03048 0
0.4810125 0.03048 0
0.485775 0.03048 0
0.4905375 0.03048 0
0.4953 0.03048 0
0.5000625 0.03048 0
0.504825 0.03048 0
0.5095875 0.03048 0
0.51435 0.03048 0
0.5191125 0.03048 0
0.523875 0.03048 0
0.5286375 0.03048 0
0.5334 0.03048 0
0.5381625 0.03048 0
0.542925 0.03048 0
0.5476875 0.03048 0
0.55245 0.03048 0
0.5572125 0.03048 0
0.561975 0.03048 0
0.5667375 0.03048 0
0.5715 0.03048 0
0.5762625 0.03048 0
0.581025 0.03048 0
0.5857875 0.03048 0
0.59055 0.03048 0
0.5953125 0.03048 0
0.600075 0.03048 0
0.6048375 0.03048 0
CELLS 128 1152
8 0 1 2 3 8 135 262 389
8 8 135 262 389 9 136 263 390
8 9 136 263 390 10 137 264 391
8 10 137 264 391 11 138 265 392
8 11 138 265 392 12 139 266 393
8 12 139 266 393 13 140 267 394
8 13 140 267 394 14 141 268 395
8 14 141 268 395 15 142 269 396
8 15 142 269 396 16 143 270 397
8 16 143 270 397 17 144 271 398
8 17 144 271 398 18 145 272 399
8 18 145 272 399 19 146 273 400
8 19 146 273 400 20 147 274 401
8 20 147 274 401 21 148 275 402
8 21 148 275 402 22 149 276 403
8 22 149 276 403 23 150 277 404
8 23 150 277 404 24 151 278 405
8 24 151 278 405 25 152 279 406
8 25 152 279 406 26 153 280 407
8 26 153 280 407 27 154 281 408
8 27 154 281 408 28 155 282 409
8 28 155 282 409 29 156 283 410
8 29 156 283 410 30 157 284 411
8 30 157 284 411 31 158 285 412
8 31 158 285 412 32 159 286 413
8 32 159 286 413 33 160 287 414
8 33 160 287 414 34 161 288 415
8 34 161 288 415 35 162 289 416
8 35 162 289 416 36 163 290 417
8 36 163 290 417 37 164 291 418
8 37 164 291 418 38 165 292 419
8 38 165 292 419 39 166 293 420
8 39 166 293 420 40 167 294 421
8 40 167 294 421 41 168 295 422
8 41 168 295 422 42 169 296 423
8 42 169 296 423 43 170 297 424
8 43 170 297 424 44 171 298 425
8 44 171 298 425 45 172 299 426
8 45 172 299 426 46 173 300 427
8 46 173 300 427 47 174 301 428
8 47 174 301 428 48 175 302 429
8 48 175 302 429 49 176 303 430
8 49 176 303 430 50 177 304 431
8 50 177 304 431 51 178 305 432
8 51 178 305 432 52 179 306 433
8 52 179 306 433 53 180 307 434
8 53 180 307 434 54 181 308 435
8 54 181 308 435 55 182 309 436
8 55 182 309 436 56 183 310 437
8 56 183 310 437 57 184 311 438
8 57 184 311 438 58 185 312 439
8 58 185 312 439 59 186 313 440
8 59 186 313 440 60 187 314 441
8 60 187 314 441 61 188 315 442
8 61 188 315 442 62 189 316 443
8 62 189 316 443 63 190 317 444
8 63 190 317 444 64 191 318 445
8 64 191 318 445 65 192 319 446
8 65 192 319 446 66 193 320 447
8 66 193 320 447 67 194 321 448
8 67 194 321 448 68 195 322 449
8 68 195 322 449 69 196 323 450
8 69 196 323 450 70 197 324 451
8 70 197 324 451 71 198 325 452
8 71 198 325 452 72 199 326 453
8 72 199 326 453 73 200 327 454
8 73 200 327 454 74 201 328 455
8 74 201 328 455 75 202 329 456
8 75 202 329 456 76 203 330 457
8 76 203 330 457 77 204 331 458
8 77 204 331 458 78 205 332 459
8 78 205 332 459 79 206 333 460
8 79 206 333 460 80 207 334 461
8 80 207 334 461 81 208 335 462
8 81 208 335 462 82 209 336 463
8 82 209 336 463 83 210 337 464
8 83 210 337 464 84 211 338 465
8 84 211 338 465 85 212 339 466
8 85 212 339 466 86 213 340 467
8 86 213 340 467 87 214 341 468
8 87 214 341 468 88 215 342 469
8 88 215 342 469 89 216 343 470
8 89 216 343 470 90 217 344 471
8 90 217 344 471 91 218 345 472
8 91 218 345 472 92 219 346 473
8 92 219 346 473 93 220 347 474
8 93 220 347 474 94 221 348 475
8 94 221 348 475 95 222 349 476
8 95 222 349 476 96 223 350 477
8 96 223 350 477 97 224 351 478
8 97 224 351 478 98 225 352 479
8 98 225 352 479 99 226 353 480
8 99 226 353 480 100 227 354 481
8 100 227 354 481 101 228 355 482
8 101 228 355 482 102 229 356 483
8 102 229 356 483 103 230 357 484
8 103 230 357 484 104 231 358 485
8 104 231 358 485 105 232 359 486
8 105 232 359 486 106 233 360 487
8 106 233 360 487 107 234 361 488
8 107 234 361 488 108 235 362 489
8 108 235 362 489 109 236 363 490
8 109 236 363 490 110 237 364 491
8 110 237 364 491 111 238 365 492
8 111 238 365 492 112 239 366 493
8 112 239 366 493 113 240 367 494
8 113 240 367 494 114 241 368 495
8 114 241 368 495 115 242 369 496
8 115 242 369 496 116 243 370 497
8 116 243 370 497 117 244 371 498
8 117 244 371 498 118 245 372 499
8 118 245 372 499 119 246 373 500
8 119 246 373 500 120 247 374 501
8 120 247 374 501 121 248 375 502
8 121 248 375 502 122 249 376 503
8 122 249 376 503 123 250 377 504
8 123 250 377 504 124 251 378 505
8 124 251 378 505 125 252 379 506
8 125 252 379 506 126 253 380 507
8 126 253 380 507 127 254 381 508
8 127 254 381 508 128 255 382 509
8 128 255 382 509 129 256 383 510
8 129 256 383 510 130 257 384 511
8 130 257 384 511 131 258 385 512
8 131 258 385 512 132 259 386 513
8 132 259 386 513 133 260 387 514
8 133 260 387 514 134 261 388 515
8 134 261 388 515 4 5 6 7
CELL_TYPES 128
12
12
12
12
12
12
12
12
12
12
12
12
12
12
12
12
12
12
12
12
12
12
12
12
12
12
12
12
12
12
12
12
12
12
12
12
12
12
12
12
12
12
12
12
12
12
12
12
12
12
12
12
12
12
12
12
12
12
12
12
12
12
12
12
12
12
12
12
12
12
12
12
12
12
12
12
12
12
12
12
12
12
12
12
12
12
12
12
12
12
12
12
12
12
12
12
12
12
12
12
12
12
12
12
12
12
12
12
12
12
12
12
12
12
12
12
12
12
12
12
12
12
12
12
12
12
12
12
POINT_DATA 516
SCALARS GLOBAL_ID int 1
LOOKUP_TABLE default
0 
1 
2 
3 
4 
5 
6 
7 
8 
9 
10 
11 
12 
13 
14 
15 
16 
17 
18 
19 
20 
21 
22 
23 
24 
25 
26 
27 
28 
29 
30 
31 
32 
33 
34 
35 
36 
37 
38 
39 
40 
41 
42 
43 
44 
45 
46 
47 
48 
49 
50 
51 
52 
53 
54 
55 
56 
57 
58 
59 
60 
61 
62 
63 
64 
65 
66 
67 
68 
69 
70 
71 
72 
73 
74 
75 
76 
77 
78 
79 
80 
81 
82 
83 
84 
85 
86 
87 
88 
89 
90 
91 
92 
93 
94 
95 
96 
97 
98 
99 
100 
101 
102 
103 
104 
105 
106 
107 
108 
109 
110 
111 
112 
113 
114 
115 
116 
117 
118 
119 
120 
121 
122 
123 
124 
125 
126 
127 
128 
129 
130 
131 
132 
133 
134 
135 
136 
137 
138 
139 
140 
141 
142 
143 
144 
145 
146 
147 
148 
149 
150 
151 
152 
153 
154 
155 
156 
157 
158 
159 
160 
161 
162 
163 
164 
165 
166 
167 
168 
169 
170 
171 
172 
173 
174 
175 
176 
177 
178 
179 
180 
181 
182 
183 
184 
185 
186 
187 
188 
189 
190 
191 
192 
193 
194 
195 
196 
197 
198 
199 
200 
201 
202 
203 
204 
205 
206 
207 
208 
209 
210 
211 
212 
213 
214 
215 
216 
217 
218 
219 
220 
221 
222 
223 
224 
225 
226 
227 
228 
229 
230 
231 
232 
233 
234 
235 
236 
237 
238 
239 
240 
241 
242 
243 
244 
245 
246 
247 
248 
249 
250 
251 
252 
253 
254 
255 
256 
257 
258 
259 
260 
261 
262 
263 
264 
265 
266 
267 
268 
269 
270 
271 
272 
273 
274 
275 
276 
277 
278 
279 
280 
281 
282 
283 
284 
285 
286 
287 
288 
289 
290 
291 
292 
293 
294 
295 
296 
297 
298 
299 
300 
301 
302 
303 
304 
305 
306 
307 
308 
309 
310 
311 
312 
313 
314 
315 
316 
317 
318 
319 
320 
321 
322 
323 
324 
325 
326 
327 
328 
329 
330 
331 
332 
333 
334 
335 
336 
337 
338 
339 
340 
341 
342 
343 
344 
345 
346 
347 
348 
349 
350 
351 
352 
353 
354 
355 
356 
357 
358 
359 
360 
361 
362 
363 
364 
365 
366 
367 
368 
369 
370 
371 
372 
373 
374 
375 
376 
377 
378 
379 
380 
381 
382 
383 
384 
385 
386 
387 
388 
389 
390 
391 
392 
393 
394 
395 
396 
397 
398 
399 
400 
401 
402 
403 
404 
405 
406 
407 
408 
409 
410 
411 
412 
413 
414 
415 
416 
417 
418 
419 
420 
421 
422 
423 
424 
425 
426 
427 
428 
429 
430 
431 
432 
433 
434 
435 
436 
437 
438 
439 
440 
441 
442 
443 
444 
445 
446 
447 
448 
449 
450 
451 
452 
453 
454 
455 
456 
457 
458 
459 
460 
461 
462 
463 
464 
465 
466 
467 
468 
469 
470 
471 
472 
473 
474 
475 
476 
477 
478 
479 
480 
481 
482 
483 
484 
485 
486 
487 
488 
489 
490 
491 
492 
493 
494 
495 
496 
497 
498 
499 
500 
501 
502 
503 
504 
505 
506 
507 
508 
509 
510 
511 
512 
513 
514 
515 
VECTORS NODES double
0 0 0 
0 0 -0.03048 
0 0.03048 -0.03048 
0 0.03048 0 
0.6096 0 0 
0.6096 0 -0.03048 
0.6096 0.03048 -0.03048 
0.6096 0.03048 0 
0.0047625 0 0 
0.009525 0 0 
0.0142875 0 0 
0.01905 0 0 
0.0238125 0 0 
0.028575 0 0 
0.0333375 0 0 
0.0381 0 0 
0.0428625 0 0 
0.047625 0 0 
0.0523875 0 0 
0.05715 0 0 
0.0619125 0 0 
0.066675 0 0 
0.0714375 0 0 
0.0762 0 0 
0.0809625 0 0 
0.085725 0 0 
0.0904875 0 0 
0.09525 0 0 
0.1000125 0 0 
0.104775 0 0 
0.1095375 0 0 
0.1143 0 0 
0.1190625 0 0 
0.123825 0 0 
0.1285875 0 0 
0.13335 0 0 
0.1381125 0 0 
0.142875 0 0 
0.1476375 0 0 
0.1524 0 0 
0.1571625 0 0 
0.161925 0 0 
0.1666875 0 0 
0.17145 0 0 
0.1762125 0 0 
0.180975 0 0 
0.1857375 0 0 
0.1905 0 0 
0.1952625 0 0 
0.200025 0 0 
0.2047875 0 0 
0.20955 0 0 
0.2143125 0 0 
0.219075 0 0 
0.2238375 0 0 
0.2286 0 0 
0.2333625 0 0 
0.238125 0 0 
0.2428875 0 0 
0.24765 0 0 
0.2524125 0 0 
0.257175 0 0 
0.2619375 0 0 
0.2667 0 0 
0.2714625 0 0 
0.276225 0 0 
0.2809875 0 0 
0.28575 0 0 
0.2905125 0 0 
0.295275 0 0 
0.3000375 0 0 
0.3048 0 0 
0.3095625 0 0 
0.314325 0 0 
0.3190875 0 0 
0.32385 0 0 
0.3286125 0 0 
0.333375 0 0 
0.3381375 0 0 
0.3429 0 0 
0.3476625 0 0 
0.352425 0 0 
0.3571875 0 0 
0.36195 0 0 
0.3667125 0 0 
0.371475 0 0 
0.3762375 0 0 
0.381 0 0 
0.3857625 0 0 
0.390525 0 0 
0.3952875 0 0 
0.40005 0 0 
0.4048125 0 0 
0.409575 0 0 
0.4143375 0 0 
0.4191 0 0 
0.4238625 0 0 
0.428625 0 0 
0.4333875 0 0 
0.43815 0 0 
0.4429125 0 0 
0.447675 0 0 
0.4524375 0 0 
0.4572 0 0 
0.4619625 0 0 
0.466725 0 0 
0.4714875 0 0 
0.47625 0 0 
0.4810125 0 0 
0.485775 0 0 
0.4905375 0 0 
0.4953 0 0 
0.5000625 0 0 
0.504825 0 0 
0.5095875 0 0 
0.51435 0 0 
0.5191125 0 0 
0.523875 0 0 
0.5286375 0 0 
0.5334 0 0 
0.5381625 0 0 
0.542925 0 0 
0.5476875 0 0 
0.55245 0 0 
0.5572125 0 0 
0.561975 0 0 
0.5667375 0 0 
0.5715 0 0 
0.5762625 0 0 
0.581025 0 0 
0.5857875 0 0 
0.59055 0 0 
0.5953125 0 0 
0.600075 0 0 
0.6048375 0 0 
0.0047625 0 -0.03048 
0.009525 0 -0.03048 
0.0142875 0 -0.03048 
0.01905 0 -0.03048 
0.0238125 0 -0.03048 
0.028575 0 -0.03048 
0.0333375 0 -0.03048 
0.0381 0 -0.03048 
0.0428625 0 -0.03048 
0.047625 0 -0.03048 
0.0523875 0 -0.03048 
0.05715 0 -0.03048 
0.0619125 0 -0.03048 
0.066675 0 -0.03048 
0.0714375 0 -0.03048 
0.0762 0 -0.03048 
0.0809625 0 -0.03048 
0.085725 0 -0.03048 
0.0904875 0 -0.03048 
0.09525 0 -0.03048 
0.1000125 0 -0.03048 
0.104775 0 -0.03048 
0.1095375 0 -0.03048 
0.1143 0 -0.03048 
0.1190625 0 -0.03048 
0.123825 0 -0.03048 
0.1285875 0 -0.03048 
0.13335 0 -0.03048 
0.1381125 0 -0.03048 
0.142875 0 -0.03048 
0.1476375 0 -0.03048 
0.1524 0 -0.03048 
0.1571625 0 -0.03048 
0.161925 0 -0.03048 
0.1666875 0 -0.03048 
0.17145 0 -0.03048 
0.1762125 0 -0.03048 
0.180975 0 -0.03048 
0.1857375 0 -0.03048 
0.1905 0 -0.03048 
0.1952625 0 -0.03048 
0.200025 0 -0.03048 
0.2047875 0 -0.03048 
0.20955 0 -0.03048 
0.2143125 0 -0.03048 
0.219075 0 -0.03048 
0.2238375 0 -0.03048 
0.2286 0 -0.03048 
0.2333625 0 -0.03048 
0.238125 0 -0.03048 
0.2428875 0 -0.03048 
0.24765 0 -0.03048 
0.2524125 0 -0.03048 
0.257175 0 -0.03048 
0.2619375 0 -0.03048 
0.2667 0 -0.03048 
0.2714625 0 -0.03048 
0.276225 0 -0.03048 
0.2809875 0 -0.03048 
0.28575 0 -0.03048 
0.2905125 0 -0.03048 
0.295275 0 -0.03048 
0.3000375 0 -0.03048 
0.3048 0 -0.03048 
0.3095625 0 -0.03048 
0.314325 0 -0.03048 
0.3190875 0 -0.03048 
0.32385 0 -0.03048 
0.3286125 0 -0.03048 
0.333375 0 -0.03048 
0.3381375 0 -0.03048 
0.3429 0 -0.03048 
0.3476625 0 -0.03048 
0.352425 0 -0.03048 
0.3571875 0 -0.03048 
0.36195 0 -0.03048 
0.3667125 0 -0.03048 
0.371475 0 -0.03048 
0.3762375 0 -0.03048 
0.381 0 -0.03048 
0.3857625 0 -0.03048 
0.390525 0 -0.03048 
0.3952875 0 -0.03048 
0.40005 0 -0.03048 
0.4048125 0 -0.03048 
0.409575 0 -0.03048 
0.4143375 0 -0.03048 
0.4191 0 -0.03048 
0.4238625 0 -0.03048 
0.428625 0 -0.03048 
0.4333875 0 -0.03048 
0.43815 0 -0.03048 
0.4429125 0 -0.03048 
0.447675 0 -0.03048 
0.4524375 0 -0.03048 
0.4572 0 -0.03048 
0.4619625 0 -0.03048 
0.466725 0 -0.03048 
0.4714875 0 -0.03048 
0.47625 0 -0.03048 
0.4810125 0 -0.03048 
0.485775 0 -0.03048 
0.4905375 0 -0.03048 
0.4953 0 -0.03048 
0.5000625 0 -0.03048 
0.504825 0 -0.03048 
0.5095875 0 -0.03048 
0.51435 0 -0.03048 
0.5191125 0 -0.03048 
0.523875 0 -0.03048 
0.5286375 0 -0.03048 
0.5334 0 -0.03048 
0.5381625 0 -0.03048 
0.542925 0 -0.03048 
0.5476875 0 -0.03048 
0.55245 0 -0.03048 
0.5572125 0 -0.03048 
0.561975 0 -0.03048 
0.5667375 0 -0.03048 
0.5715 0 -0.03048 
0.5762625 0 -0.03048 
0.581025 0 -0.03048 
0.5857875 0 -0.03048 
0.59055 0 -0.03048 
0.5953125 0 -0.03048 
0.600075 0 -0.03048 
0.6048375 0 -0.03048 
0.0047625 0.03048 -0.03048 
0.009525 0.03048 -0.03048 
0.0142875 0.03048 -0.03048 
0.01905 0.03048 -0.03048 
0.0238125 0.03048 -0.03048 
0.028575 0.03048 -0.03048 
0.0333375 0.03048 -0.03048 
0.0381 0.03048 -0.03048 
0.0428625 0.03048 -0.03048 
0.047625 0.03048 -0.03048 
0.0523875 0.03048 -0.03048 
0.05715 0.03048 -0.03048 
0.0619125 0.03048 -0.03048 
0.066675 0.03048 -0.03048 
0.0714375 0.03048 -0.03048 
0.0762 0.03048 -0.03048 
0.0809625 0.03048 -0.03048 
0.085725 0.03048 -0.03048 
0.0904875 0.03048 -0.03048 
0.09525 0.03048 -0.03048 
0.1000125 0.03048 -0.03048 
0.104775 0.03048 -0.03048 
0.1095375 0.03048 -0.03048 
0.1143 0.03048 -0.03048 
0.1190625 0.03048 -0.03048 
0.123825 0.03048 -0.03048 
0.1285875 0.03048 -0.03048 
0.13335 0.03048 -0.03048 
0.1381125 0.03048 -0.03048 
0.142875 0.03048 -0.03048 
0.1476375 0.03048 -0.03048 
0.1524 0.03048 -0.03048 
0.1571625 0.03048 -0.03048 
0.161925 0.03048 -0.03048 
0.1666875 0.03048 -0.03048 
0.17145 0.03048 -0.03048 
0.1762125 0.03048 -0.03048 
0.180975 0.03048 -0.03048 
0.1857375 0.03048 -0.03048 
0.1905 0.03048 -0.03048 
0.1952625 0.03048 -0.03048 
0.200025 0.03048 -0.03048 
0.2047875 0.03048 -0.03048 
0.20955 0.03048 -0.03048 
0.2143125 0.03048 -0.03048 
0.219075 0.03048 -0.03048 
0.2238375 0.03048 -0.03048 
0.2286 0.03048 -0.03048 
0.2333625 0.03048 -0.03048 
0.238125 0.03048 -0.03048 
0.2428875 0.03048 -0.03048 
0.24765 0.03048 -0.03048 
0.2524125 0.03048 -0.03048 
0.257175 0.03048 -0.03048 
0.2619375 0.03048 -0.03048 
0.2667 0.03048 -0.03048 
0.2714625 0.03048 -0.03048 
0.276225 0.03048 -0.03048 
0.2809875 0.03048 -0.03048 
0.28575 0.03048 -0.03048 
0.2905125 0.03048 -0.03048 
0.295275 0.03048 -0.03048 
0.3000375 0.03048 -0.03048 
0.3048 0.03048 -0.03048 
0.3095625 0.03048 -0.03048 
0.314325 0.03048 -0.03048 
0.3190875 0.03048 -0.03048 
0.32385 0.03048 -0.03048 
0.3286125 0.03048 -0.03048 
0.333375 0.03048 -0.03048 
0.3381375 0.03048 -0.03048 
0.3429 0.03048 -0.03048 
0.3476625 0.03048 -0.03048 
0.352425 0.03048 -0.03048 
0.3571875 0.03048 -0.03048 
0.36195 0.03048 -0.03048 
0.3667125 0.03048 -0.03048 
0.371475 0.03048 -0.03048 
0.3762375 0.03048 -0.03048 
0.381 0.03048 -0.03048 
0.3857625 0.03048 -0.03048 
0.390525 0.03048 -0.03048 
0.3952875 0.03048 -0.03048 
0.40005 0.03048 -0.03048 
0.4048125 0.03048 -0.03048 
0.409575 0.03048 -0.03048 
0.4143375 0.03048 -0.03048 
0.4191 0.03048 -0.03048 
0.4238625 0.03048 -0.03048 
0.428625 0.03048 -0.03048 
0.4333875 0.03048 -0.03048 
0.43815 0.03048 -0.03048 
0.4429125 0.03048 -0.03048 
0.447675 0.03048 -0.03048 
0.4524375 0.03048 -0.03048 
0.4572 0.03048 -0.03048 
0.4619625 0.03048 -0.03048 
0.466725 0.03048 -0.03048 
0.4714875 0.03048 -0.03048 
0.47625 0.03048 -0.03048 
0.4810125 0.03048 -0.03048 
0.485775 0.03048 -0.03048 
0.4905375 0.03048 -0.03048 
0.4953 0.03048 -0.03048 
0.5000625 0.03048 -0.03048 
0.504825 0.03048 -0.03048 
0.5095875 0.03048 -0.03048 
0.51435 0.03048 -0.03048 
0.5191125 0.03048 -0.03048 
0.523875 0.03048 -0.03048 
0.5286375 0.03048 -0.03048 
0.5334 0.03048 -0.03048 
0.5381625 0.03048 -0.03048 
0.542925 0.03048 -0.03048 
0.5476875 0.03048 -0.03048 
0.55245 0.03048 -0.03048 
0.5572125 0.03048 -0.03048 
0.561975 0.03048 -0.03048 
0.5667375 0.03048 -0.03048 
0.5715 0.03048 -0.03048 
0.5762625 0.03048 -0.03048 
0.581025 0.03048 -0.03048 
0.5857875 0.03048 -0.03048 
0.59055 0.03048 -0.03048 
0.5953125 0.03048 -0.03048 
0.600075 0.03048 -0.03048 
0.6048375 0.03048 -0.03048 
0.0047625 0.03048 0 
0.009525 0.03048 0 
0.0142875 0.03048 0 
0.01905 0.03048 0 
0.0238125 0.03048 0 
0.028575 0.03048 0 
0.0333375 0.03048 0 
0.0381 0.03048 0 
0.0428625 0.03048 0 
0.047625 0.03048 0 
0.0523875 0.03048 0 
0.05715 0.03048 0 
0.0619125 0.03048 0 
0.066675 0.03048 0 
0.0714375 0.03048 0 
0.0762 0.03048 0 
0.0809625 0.03048 0 
0.085725 0.03048 0 
0.0904875 0.03048 0 
0.09525 0.03048 0 
0.1000125 0.03048 0 
0.104775 0.03048 0 
0.1095375 0.03048 0 
0.1143 0.03048 0 
0.1190625 0.03048 0 
0.123825 0.03048 0 
0.1285875 0.03048 0 
0.13335 0.03048 0 
0.1381125 0.03048 0 
0.142875 0.03048 0 
0.1476375 0.03048 0 
0.1524 0.03048 0 
0.1571625 0.03048 0 
0.161925 0.03048 0 
0.1666875 0.03048 0 
0.17145 0.03048 0 
0.1762125 0.03048 0 
0.180975 0.03048 0 
0.1857375 0.03048 0 
0.1905 0.03048 0 
0.1952625 0.03048 0 
0.200025 0.03048 0 
0.2047875 0.03048 0 
0.20955 0.03048 0 
0.2143125 0.03048 0 
0.219075 0.03048 0 
0.2238375 0.03048 0 
0.2286 0.03048 0 
0.2333625 0.03048 0 
0.238125 0.03048 0 
0.2428875 0.03048 0 
0.24765 0.03048 0 
0.2524125 0.03048 0 
0.257175 0.03048 0 
0.2619375 0.03048 0 
0.2667 0.03048 0 
0.2714625 0.03048 0 
0.276225 0.03048 0 
0.2809875 0.03048 0 
0.28575 0.03048 0 
0.2905125 0.03048 0 
0.295275 0.03048 0 
0.3000375 0.03048 0 
0.3048 0.03048 0 
0.3095625 0.03048 0 
0.314325 0.03048 0 
0.3190875 0.03048 0 
0.32385 0.03048 0 
0.3286125 0.03048 0 
0.333375 0.03048 0 
0.3381375 0.03048 0 
0.3429 0.03048 0 
0.3476625 0.03048 0 
0.352425 0.03048 0 
0.3571875 0.03048 0 
0.36195 0.03048 0 
0.3667125 0.03048 0 
0.371475 0.03048 0 
0.3762375 0.03048 0 
0.381 0.03048 0 
0.3857625 0.03048 0 
0.390525 0.03048 0 
0.3952875 0.03048 0 
0.40005 0.03048 0 
0.4048125 0.03048 0 
0.409575 0.03048 0 
0.4143375 0.03048 0 
0.4191 0.03048 0 
0.4238625 0.03048 0 
0.428625 0.03048 0 
0.4333875 0.03048 0 
0.43815 0.03048 0 
0.4429125 0.03048 0 
0.447675 0.03048 0 
0.4524375 0.03048 0 
0.4572 0.03048 0 
0.4619625 0.03048 0 
0.466725 0.03048 0 
0.4714875 0.03048 0 
0.47625 0.03048 0 
0.4810125 0.03048 0 
0.485775 0.03048 0 
0.4905375 0.03048 0 
0.4953 0.03048 0 
0.5000625 0.03048 0 
0.504825 0.03048 0 
0.5095875 0.03048 0 
0.51435 0.03048 0 
0.5191125 0.03048 0 
0.523875 0.03048 0 
0.5286375 0.03048 0 
0.5334 0.03048 0 
0.5381625 0.03048 0 
0.542925 0.03048 0 
0.5476875 0.03048 0 
0.55245 0.03048 0 
0.5572125 0.03048 0 
0.561975 0.03048 0 
0.5667375 0.03048 0 
0.5715 0.03048 0 
0.5762625 0.03048 0 
0.581025 0.03048 0 
0.5857875 0.03048 0 
0.59055 0.03048 0 
0.5953125 0.03048 0 
0.600075 0.03048 0 
0.6048375 0.03048 0 
VECTORS centroid_nodes double
0 0 0 
0 0 -0.03048 
0 0.03048 -0.03048 
0 0.03048 0 
0.6096 0 0 
0.6096 0 -0.03048 
0.6096 0.03048 -0.03048 
0.6096 0.03048 0 
0.0047625 0 0 
0.009525 0 0 
0.0142875 0 0 
0.01905 0 0 
0.0238125 0 0 
0.028575 0 0 
0.0333375 0 0 
0.0381 0 0 
0.0428625 0 0 
0.047625 0 0 
0.0523875 0 0 
0.05715 0 0 
0.0619125 0 0 
0.066675 0 0 
0.0714375 0 0 
0.0762 0 0 
0.0809625 0 0 
0.085725 0 0 
0.0904875 0 0 
0.09525 0 0 
0.1000125 0 0 
0.104775 0 0 
0.1095375 0 0 
0.1143 0 0 
0.1190625 0 0 
0.123825 0 0 
0.1285875 0 0 
0.13335 0 0 
0.1381125 0 0 
0.142875 0 0 
0.1476375 0 0 
0.1524 0 0 
0.1571625 0 0 
0.161925 0 0 
0.1666875 0 0 
0.17145 0 0 
0.1762125 0 0 
0.180975 0 0 
0.1857375 0 0 
0.1905 0 0 
0.1952625 0 0 
0.200025 0 0 
0.2047875 0 0 
0.20955 0 0 
0.2143125 0 0 
0.219075 0 0 
0.2238375 0 0 
0.2286 0 0 
0.2333625 0 0 
0.238125 0 0 
0.2428875 0 0 
0.24765 0 0 
0.2524125 0 0 
0.257175 0 0 
0.2619375 0 0 
0.2667 0 0 
0.2714625 0 0 
0.276225 0 0 
0.2809875 0 0 
0.28575 0 0 
0.2905125 0 0 
0.295275 0 0 
0.3000375 0 0 
0.3048 0 0 
0.3095625 0 0 
0.314325 0 0 
0.3190875 0 0 
0.32385 0 0 
0.3286125 0 0 
0.333375 0 0 
0.3381375 0 0 
0.3429 0 0 
0.3476625 0 0 
0.352425 0 0 
0.3571875 0 0 
0.36195 0 0 
0.3667125 0 0 
0.371475 0 0 
0.3762375 0 0 
0.381 0 0 
0.3857625 0 0 
0.390525 0 0 
0.3952875 0 0 
0.40005 0 0 
0.4048125 0 0 
0.409575 0 0 
0.4143375 0 0 
0.4191 0 0 
0.4238625 0 0 
0.428625 0 0 
0.4333875 0 0 
0.43815 0 0 
0.4429125 0 0 
0.447675 0 0 
0.4524375 0 0 
0.4572 0 0 
0.4619625 0 0 
0.466725 0 0 
0.4714875 0 0 
0.47625 0 0 
0.4810125 0 0 
0.485775 0 0 
0.4905375 0 0 
0.4953 0 0 
0.5000625 0 0 
0.504825 0 0 
0.5095875 0 0 
0.51435 0 0 
0.5191125 0 0 
0.523875 0 0 
0.5286375 0 0 
0.5334 0 0 
0.5381625 0 0 
0.542925 0 0 
0.5476875 0 0 
0.55245 0 0 
0.5572125 0 0 
0.561975 0 0 
0.5667375 0 0 
0.5715 0 0 
0.5762625 0 0 
0.581025 0 0 
0.5857875 0 0 
0.59055 0 0 
0.5953125 0 0 
0.600075 0 0 
0.6048375 0 0 
0.0047625 0 -0.03048 
0.009525 0 -0.03048 
0.0142875 0 -0.03048 
0.01905 0 -0.03048 
0.0238125 0 -0.03048 
0.028575 0 -0.03048 