# vtk DataFile Version 3.0
MOAB 5.1.1
ASCII
DATASET UNSTRUCTURED_GRID
POINTS 260 double
0 0 0
0 0 -10
0 10.66875 -10
0 10.66875 0
2731.2 0 0
2731.2 0 -10
2731.2 10.66875 -10
2731.2 10.66875 0
42.675 0 0
85.35 0 0
128.025 0 0
170.7 0 0
213.375 0 0
256.05 0 0
298.725 0 0
341.4 0 0
384.075 0 0
426.75 0 0
469.425 0 0
512.1 0 0
554.775 0 0
597.45 0 0
640.125 0 0
682.8 0 0
725.475 0 0
768.15 0 0
810.825 0 0
853.5 0 0
896.175 0 0
938.85 0 0
981.525 0 0
1024.2 0 0
1066.875 0 0
1109.55 0 0
1152.225 0 0
1194.9 0 0
1237.575 0 0
1280.25 0 0
1322.925 0 0
1365.6 0 0
1408.275 0 0
1450.95 0 0
1493.625 0 0
1536.3 0 0
1578.975 0 0
1621.65 0 0
1664.325 0 0
1707 0 0
1749.675 0 0
1792.35 0 0
1835.025 0 0
1877.7 0 0
1920.375 0 0
1963.05 0 0
2005.725 0 0
2048.4 0 0
2091.075 0 0
2133.75 0 0
2176.425 0 0
2219.1 0 0
2261.775 0 0
2304.45 0 0
2347.125 0 0
2389.8 0 0
2432.475 0 0
2475.15 0 0
2517.825 0 0
2560.5 0 0
2603.175 0 0
2645.85 0 0
2688.525 0 0
42.675 0 -10
85.35 0 -10
128.025 0 -10
170.7 0 -10
213.375 0 -10
256.05 0 -10
298.725 0 -10
341.4 0 -10
384.075 0 -10
426.75 0 -10
469.425 0 -10
512.1 0 -10
554.775 0 -10
597.45 0 -10
640.125 0 -10
682.8 0 -10
725.475 0 -10
768.15 0 -10
810.825 0 -10
853.5 0 -10
896.175 0 -10
938.85 0 -10
981.525 0 -10
1024.2 0 -10
1066.875 0 -10
1109.55 0 -10
1152.225 0 -10
1194.9 0 -10
1237.575 0 -10
1280.25 0 -10
1322.925 0 -10
1365.6 0 -10
1408.275 0 -10
1450.95 0 -10
1493.625 0 -10
1536.3 0 -10
1578.975 0 -10
1621.65 0 -10
1664.325 0 -10
1707 0 -10
1749.675 0 -10
1792.35 0 -10
1835.025 0 -10
1877.7 0 -10
1920.375 0 -10
1963.05 0 -10
2005.725 0 -10
2048.4 0 -10
2091.075 0 -10
2133.75 0 -10
2176.425 0 -10
2219.1 0 -10
2261.775 0 -10
2304.45 0 -10
2347.125 0 -10
2389.8 0 -10
2432.475 0 -10
2475.15 0 -10
2517.825 0 -10
2560.5 0 -10
2603.175 0 -10
2645.85 0 -10
2688.525 0 -10
42.675 10.66875 -10
85.35 10.66875 -10
128.025 10.66875 -10
170.7 10.66875 -10
213.375 10.66875 -10
256.05 10.66875 -10
298.725 10.66875 -10
341.4 10.66875 -10
384.075 10.66875 -10
426.75 10.66875 -10
469.425 10.66875 -10
512.1 10.66875 -10
554.775 10.66875 -10
597.45 10.66875 -10
640.125 10.66875 -10
682.8 10.66875 -10
725.475 10.66875 -10
768.15 10.66875 -10
810.825 10.66875 -10
853.5 10.66875 -10
896.175 10.66875 -10
938.85 10.66875 -10
981.525 10.66875 -10
1024.2 10.66875 -10
1066.875 10.66875 -10
1109.55 10.66875 -10
1152.225 10.66875 -10
1194.9 10.66875 -10
1237.575 10.66875 -10
1280.25 10.66875 -10
1322.925 10.66875 -10
1365.6 10.66875 -10
1408.275 10.66875 -10
1450.95 10.66875 -10
1493.625 10.66875 -10
1536.3 10.66875 -10
1578.975 10.66875 -10
1621.65 10.66875 -10
1664.325 10.66875 -10
1707 10.66875 -10
1749.675 10.66875 -10
1792.35 10.66875 -10
1835.025 10.66875 -10
1877.7 10.66875 -10
1920.375 10.66875 -10
1963.05 10.66875 -10
2005.725 10.66875 -10
2048.4 10.66875 -10
2091.075 10.66875 -10
2133.75 10.66875 -10
2176.425 10.66875 -10
2219.1 10.66875 -10
2261.775 10.66875 -10
2304.45 10.66875 -10
2347.125 10.66875 -10
2389.8 10.66875 -10
2432.475 10.66875 -10
2475.15 10.66875 -10
2517.825 10.66875 -10
2560.5 10.66875 -10
2603.175 10.66875 -10
2645.85 10.66875 -10
2688.525 10.66875 -10
42.675 10.66875 0
85.35 10.66875 0
128.025 10.66875 0
170.7 10.66875 0
213.375 10.66875 0
256.05 10.66875 0
298.725 10.66875 0
341.4 10.66875 0
384.075 10.66875 0
426.75 10.66875 0
469.425 10.66875 0
512.1 10.66875 0
554.775 10.66875 0
597.45 10.66875 0
640.125 10.66875 0
682.8 10.66875 0
725.475 10.66875 0
768.15 10.66875 0
810.825 10.66875 0
853.5 10.66875 0
896.175 10.66875 0
938.85 10.66875 0
981.525 10.66875 0
1024.2 10.66875 0
1066.875 10.66875 0
1109.55 10.66875 0
1152.225 10.66875 0
1194.9 10.66875 0
1237.575 10.66875 0
1280.25 10.66875 0
1322.925 10.66875 0
1365.6 10.66875 0
1408.275 10.66875 0
1450.95 10.66875 0
1493.625 10.66875 0
1536.3 10.66875 0
1578.975 10.66875 0
1621.65 10.66875 0
1664.325 10.66875 0
1707 10.66875 0
1749.675 10.66875 0
1792.35 10.66875 0
1835.025 10.66875 0
1877.7 10.66875 0
1920.375 10.66875 0
1963.05 10.66875 0
2005.725 10.66875 0
2048.4 10.66875 0
2091.075 10.66875 0
2133.75 10.66875 0
2176.425 10.66875 0
2219.1 10.66875 0
2261.775 10.66875 0
2304.45 10.66875 0
2347.125 10.66875 0
2389.8 10.66875 0
2432.475 10.66875 0
2475.15 10.66875 0
2517.825 10.66875 0
2560.5 10.66875 0
2603.175 10.66875 0
2645.85 10.66875 0
2688.525 10.66875 0
CELLS 64 576
8 0 1 2 3 8 71 134 197
8 8 71 134 197 9 72 135 198
8 9 72 135 198 10 73 136 199
8 10 73 136 199 11 74 137 200
8 11 74 137 200 12 75 138 201
8 12 75 138 201 13 76 139 202
8 13 76 139 202 14 77 140 203
8 14 77 140 203 15 78 141 204
8 15 78 141 204 16 79 142 205
8 16 79 142 205 17 80 143 206
8 17 80 143 206 18 81 144 207
8 18 81 144 207 19 82 145 208
8 19 82 145 208 20 83 146 209
8 20 83 146 209 21 84 147 210
8 21 84 147 210 22 85 148 211
8 22 85 148 211 23 86 149 212
8 23 86 149 212 24 87 150 213
8 24 87 150 213 25 88 151 214
8 25 88 151 214 26 89 152 215
8 26 89 152 215 27 90 153 216
8 27 90 153 216 28 91 154 217
8 28 91 154 217 29 92 155 218
8 29 92 155 218 30 93 156 219
8 30 93 156 219 31 94 157 220
8 31 94 157 220 32 95 158 221
8 32 95 158 221 33 96 159 222
8 33 96 159 222 34 97 160 223
8 34 97 160 223 35 98 161 224
8 35 98 161 224 36 99 162 225
8 36 99 162 225 37 100 163 226
8 37 100 163 226 38 101 164 227
8 38 101 164 227 39 102 165 228
8 39 102 165 228 40 103 166 229
8 40 103 166 229 41 104 167 230
8 41 104 167 230 42 105 168 231
8 42 105 168 231 43 106 169 232
8 43 106 169 232 44 107 170 233
8 44 107 170 233 45 108 171 234
8 45 108 171 234 46 109 172 235
8 46 109 172 235 47 110 173 236
8 47 110 173 236 48 111 174 237
8 48 111 174 237 49 112 175 238
8 49 112 175 238 50 113 176 239
8 50 113 176 239 51 114 177 240
8 51 114 177 240 52 115 178 241
8 52 115 178 241 53 116 179 242
8 53 116 179 242 54 117 180 243
8 54 117 180 243 55 118 181 244
8 55 118 181 244 56 119 182 245
8 56 119 182 245 57 120 183 246
8 57 120 183 246 58 121 184 247
8 58 121 184 247 59 122 185 248
8 59 122 185 248 60 123 186 249
8 60 123 186 249 61 124 187 250
8 61 124 187 250 62 125 188 251
8 62 125 188 251 63 126 189 252
8 63 126 189 252 64 127 190 253
8 64 127 190 253 65 128 191 254
8 65 128 191 254 66 129 192 255
8 66 129 192 255 67 130 193 256
8 67 130 193 256 68 131 194 257
8 68 131 194 257 69 132 195 258
8 69 132 195 258 70 133 196 259
8 70 133 196 259 4 5 6 7
CELL_TYPES 64
12
12
12
12
12
12
12
12
12
12
12
12
12
12
12
12
12
12
12
12
12
12
12
12
12
12
12
12
12
12
12
12
12
12
12
12
12
12
12
12
12
12
12
12
12
12
12
12
12
12
12
12
12
12
12
12
12
12
12
12
12
12
12
12
POINT_DATA 260
SCALARS GLOBAL_ID int 1
LOOKUP_TABLE default
0 
1 
2 
3 
4 
5 
6 
7 
8 
9 
10 
11 
12 
13 
14 
15 
16 
17 
18 
19 
20 
21 
22 
23 
24 
25 
26 
27 
28 
29 
30 
31 
32 
33 
34 
35 
36 
37 
38 
39 
40 
41 
42 
43 
44 
45 
46 
47 
48 
49 
50 
51 
52 
53 
54 
55 
56 
57 
58 
59 
60 
61 
62 
63 
64 
65 
66 
67 
68 
69 
70 
71 
72 
73 
74 
75 
76 
77 
78 
79 
80 
81 
82 
83 
84 
85 
86 
87 
88 
89 
90 
91 
92 
93 
94 
95 
96 
97 
98 
99 
100 
101 
102 
103 
104 
105 
106 
107 
108 
109 
110 
111 
112 
113 
114 
115 
116 
117 
118 
119 
120 
121 
122 
123 
124 
125 
126 
127 
128 
129 
130 
131 
132 
133 
134 
135 
136 
137 
138 
139 
140 
141 
142 
143 
144 
145 
146 
147 
148 
149 
150 
151 
152 
153 
154 
155 
156 
157 
158 
159 
160 
161 
162 
163 
164 
165 
166 
167 
168 
169 
170 
171 
172 
173 
174 
175 
176 
177 
178 
179 
180 
181 
182 
183 
184 
185 
186 
187 
188 
189 
190 
191 
192 
193 
194 
195 
196 
197 
198 
199 
200 
201 
202 
203 
204 
205 
206 
207 
208 
209 
210 
211 
212 
213 
214 
215 
216 
217 
218 
219 
220 
221 
222 
223 
224 
225 
226 
227 
228 
229 
230 
231 
232 
233 
234 
235 
236 
237 
238 
239 
240 
241 
242 
243 
244 
245 
246 
247 
248 
249 
250 
251 
252 
253 
254 
255 
256 
257 
258 
259 
VECTORS NODES double
0 0 0 
0 0 -10 
0 10.66875 -10 
0 10.66875 0 
2731.2 0 0 
2731.2 0 -10 
2731.2 10.66875 -10 
2731.2 10.66875 0 
42.675 0 0 
85.35 0 0 
128.025 0 0 
170.7 0 0 
213.375 0 0 
256.05 0 0 
298.725 0 0 
341.4 0 0 
384.075 0 0 
426.75 0 0 
469.425 0 0 
512.1 0 0 
554.775 0 0 
597.45 0 0 
640.125 0 0 
682.8 0 0 
725.475 0 0 
768.15 0 0 
810.825 0 0 
853.5 0 0 
896.175 0 0 
938.85 0 0 
981.525 0 0 
1024.2 0 0 
1066.875 0 0 
1109.55 0 0 
1152.225 0 0 
1194.9 0 0 
1237.575 0 0 
1280.25 0 0 
1322.925 0 0 
1365.6 0 0 
1408.275 0 0 
1450.95 0 0 
1493.625 0 0 
1536.3 0 0 
1578.975 0 0 
1621.65 0 0 
1664.325 0 0 
1707 0 0 
1749.675 0 0 
1792.35 0 0 
1835.025 0 0 
1877.7 0 0 
1920.375 0 0 
1963.05 0 0 
2005.725 0 0 
2048.4 0 0 
2091.075 0 0 
2133.75 0 0 
2176.425 0 0 
2219.1 0 0 
2261.775 0 0 
2304.45 0 0 
2347.125 0 0 
2389.8 0 0 
2432.475 0 0 
2475.15 0 0 
2517.825 0 0 
2560.5 0 0 
2603.175 0 0 
2645.85 0 0 
2688.525 0 0 
42.675 0 -10 
85.35 0 -10 
128.025 0 -10 
170.7 0 -10 
213.375 0 -10 
256.05 0 -10 
298.725 0 -10 
341.4 0 -10 
384.075 0 -10 
426.75 0 -10 
469.425 0 -10 
512.1 0 -10 
554.775 0 -10 
597.45 0 -10 
640.125 0 -10 
682.8 0 -10 
725.475 0 -10 
768.15 0 -10 
810.825 0 -10 
853.5 0 -10 
896.175 0 -10 
938.85 0 -10 
981.525 0 -10 
1024.2 0 -10 
1066.875 0 -10 
1109.55 0 -10 
1152.225 0 -10 
1194.9 0 -10 
1237.575 0 -10 
1280.25 0 -10 
1322.925 0 -10 
1365.6 0 -10 
1408.275 0 -10 
1450.95 0 -10 
1493.625 0 -10 
1536.3 0 -10 
1578.975 0 -10 
1621.65 0 -10 
1664.325 0 -10 
1707 0 -10 
1749.675 0 -10 
1792.35 0 -10 
1835.025 0 -10 
1877.7 0 -10 
1920.375 0 -10 
1963.05 0 -10 
2005.725 0 -10 
2048.4 0 -10 
2091.075 0 -10 
2133.75 0 -10 
2176.425 0 -10 
2219.1 0 -10 
2261.775 0 -10 
2304.45 0 -10 
2347.125 0 -10 
2389.8 0 -10 
2432.475 0 -10 
2475.15 0 -10 
2517.825 0 -10 
2560.5 0 -10 
2603.175 0 -10 
2645.85 0 -10 
2688.525 0 -10 
42.675 10.66875 -10 
85.35 10.66875 -10 
128.025 10.66875 -10 
170.7 10.66875 -10 
213.375 10.66875 -10 
256.05 10.66875 -10 
298.725 10.66875 -10 
341.4 10.66875 -10 
384.075 10.66875 -10 
426.75 10.66875 -10 
469.425 10.66875 -10 
512.1 10.66875 -10 
554.775 10.66875 -10 
597.45 10.66875 -10 
640.125 10.66875 -10 
682.8 10.66875 -10 
725.475 10.66875 -10 
768.15 10.66875 -10 
810.825 10.66875 -10 
853.5 10.66875 -10 
896.175 10.66875 -10 
938.85 10.66875 -10 
981.525 10.66875 -10 
1024.2 10.66875 -10 
1066.875 10.66875 -10 
1109.55 10.66875 -10 
1152.225 10.66875 -10 
1194.9 10.66875 -10 
1237.575 10.66875 -10 
1280.25 10.66875 -10 
1322.925 10.66875 -10 
1365.6 10.66875 -10 
1408.275 10.66875 -10 
1450.95 10.66875 -10 
1493.625 10.66875 -10 
1536.3 10.66875 -10 
1578.975 10.66875 -10 
1621.65 10.66875 -10 
1664.325 10.66875 -10 
1707 10.66875 -10 
1749.675 10.66875 -10 
1792.35 10.66875 -10 
1835.025 10.66875 -10 
1877.7 10.66875 -10 
1920.375 10.66875 -10 
1963.05 10.66875 -10 
2005.725 10.66875 -10 
2048.4 10.66875 -10 
2091.075 10.66875 -10 
2133.75 10.66875 -10 
2176.425 10.66875 -10 
2219.1 10.66875 -10 
2261.775 10.66875 -10 
2304.45 10.66875 -10 
2347.125 10.66875 -10 
2389.8 10.66875 -10 
2432.475 10.66875 -10 
2475.15 10.66875 -10 
2517.825 10.66875 -10 
2560.5 10.66875 -10 
2603.175 10.66875 -10 
2645.85 10.66875 -10 
2688.525 10.66875 -10 
42.675 10.66875 0 
85.35 10.66875 0 
128.025 10.66875 0 
170.7 10.66875 0 
213.375 10.66875 0 
256.05 10.66875 0 
298.725 10.66875 0 
341.4 10.66875 0 
384.075 10.66875 0 
426.75 10.66875 0 
469.425 10.66875 0 
512.1 10.66875 0 
554.775 10.66875 0 
597.45 10.66875 0 
640.125 10.66875 0 
682.8 10.66875 0 
725.475 10.66875 0 
768.15 10.66875 0 
810.825 10.66875 0 
853.5 10.66875 0 
896.175 10.66875 0 
938.85 10.66875 0 
981.525 10.66875 0 
1024.2 10.66875 0 
1066.875 10.66875 0 
1109.55 10.66875 0 
1152.225 10.66875 0 
1194.9 10.66875 0 
1237.575 10.66875 0 
1280.25 10.66875 0 
1322.925 10.66875 0 
1365.6 10.66875 0 
1408.275 10.66875 0 
1450.95 10.66875 0 
1493.625 10.66875 0 
1536.3 10.66875 0 
1578.975 10.66875 0 
1621.65 10.66875 0 
1664.325 10.66875 0 
1707 10.66875 0 
1749.675 10.66875 0 
1792.35 10.66875 0 
1835.025 10.66875 0 
1877.7 10.66875 0 
1920.375 10.66875 0 
1963.05 10.66875 0 
2005.725 10.66875 0 
2048.4 10.66875 0 
2091.075 10.66875 0 
2133.75 10.66875 0 
2176.425 10.66875 0 
2219.1 10.66875 0 
2261.775 10.66875 0 
2304.45 10.66875 0 
2347.125 10.66875 0 
2389.8 10.66875 0 
2432.475 10.66875 0 
2475.15 10.66875 0 
2517.825 10.66875 0 
2560.5 10.66875 0 
2603.175 10.66875 0 
2645.85 10.66875 0 
2688.525 10.66875 0 
VECTORS centroid_nodes double
0 0 0 
0 0 -10 
0 10.66875 -10 
0 10.66875 0 
2731.2 0 0 
2731.2 0 -10 
2731.2 10.66875 -10 
2731.2 10.66875 0 
42.675 0 0 
85.35 0 0 
128.025 0 0 
170.7 0 0 
213.375 0 0 
256.05 0 0 
298.725 0 0 
341.4 0 0 
384.075 0 0 
426.75 0 0 
469.425 0 0 
512.1 0 0 
554.775 0 0 
597.45 0 0 
640.125 0 0 
682.8 0 0 
725.475 0 0 
768.15 0 0 
810.825 0 0 
853.5 0 0 
896.175 0 0 
938.85 0 0 
981.525 0 0 
1024.2 0 0 
1066.875 0 0 
1109.55 0 0 
1152.225 0 0 
1194.9 0 0 
1237.575 0 0 
1280.25 0 0 
1322.925 0 0 
1365.6 0 0 
1408.275 0 0 
1450.95 0 0 
1493.625 0 0 
1536.3 0 0 
1578.975 0 0 
1621.65 0 0 
1664.325 0 0 
1707 0 0 
1749.675 0 0 
1792.35 0 0 
1835.025 0 0 
1877.7 0 0 
1920.375 0 0 
1963.05 0 0 
2005.725 0 0 
2048.4 0 0 
2091.075 0 0 
2133.75 0 0 
2176.425 0 0 
2219.1 0 0 
2261.775 0 0 
2304.45 0 0 
2347.125 0 0 
2389.8 0 0 
2432.475 0 0 
2475.15 0 0 
2517.825 0 0 
2560.5 0 0 
2603.175 0 0 
2645.85 0 0 
2688.525 0 0 
42.675 0 -10 
85.35 0 -10 
128.025 0 -10 
170.7 0 -10 
213.375 0 -10 
256.05 0 -10 
298.725 0 -10 
341.4 0 -10 
384.075 0 -10 
426.75 0 -10 
469.425 0 -10 
512.1 0 -10 
554.775 0 -10 
597.45 0 -10 
640.125 0 -10 
682.8 0 -10 
725.475 0 -10 
768.15 0 -10 
810.825 0 -10 
853.5 0 -10 
896.175 0 -10 
938.85 0 -10 
981.525 0 -10 
1024.2 0 -10 
1066.875 0 -10 
1109.55 0 -10 
1152.225 0 -10 
1194.9 0 -10 
1237.575 0 -10 
1280.25 0 -10 
1322.925 0 -10 
1365.6 0 -10 
1408.275 0 -10 
1450.95 0 -10 
1493.625 0 -10 
1536.3 0 -10 
1578.975 0 -10 
1621.65 0 -10 
1664.325 0 -10 
1707 0 -10 
1749.675 0 -10 
1792.35 0 -10 
1835.025 0 -10 
1877.7 0 -10 
1920.375 0 -10 
1963.05 0 -10 
2005.725 0 -10 
2048.4 0 -10 
2091.075 0 -10 
2133.75 0 -10 
2176.425 0 -10 
2219.1 0 -10 
2261.775 0 -10 
2304.45 0 -10 
2347.125 0 -10 
2389.8 0 -10 
2432.475 0 -10 
2475.15 0 -10 
2517.825 0 -10 
2560.5 0 -10 
2603.175 0 -10 
2645.85 0 -10 
2688.525 0 -10 
42.675 10.66875 -10 
85.35 10.66875 -10 
128.025 10.66875 -10 
170.7 10.66875 -10 
213.375 10.66875 -10 
256.05 10.66875 -10 
298.725 10.66875 -10 
341.4 10.66875 -10 
384.075 10.66875 -10 
426.75 10.66875 -10 
469.425 10.66875 -10 
512.1 10.66875 -10 
554.775 10.66875 -10 
597.45 10.66875 -10 
640.125 10.66875 -10 
682.8 10.66875 -10 
725.475 10.66875 -10 
768.15 10.66875 -10 
810.825 10.66875 -10 
853.5 10.66875 -10 
896.175 10.66875 -10 
938.85 10.66875 -10 
981.525 10.66875 -10 
1024.2 10.66875 -10 
1066.875 10.66875 -10 
1109.55 10.66875 -10 
1152.225 10.66875 -10 
1194.9 10.66875 -10 
1237.575 10.66875 -10 
1280.25 10.66875 -10 
1322.925 10.66875 -10 
1365.6 10.66875 -10 
1408.275 10.66875 -10 
1450.95 10.66875 -10 
1493.625 10.66875 -10 
1536.3 10.66875 -10 
1578.975 10.66875 -10 
1621.65 10.66875 -10 
1664.325 10.66875 -10 
1707 10.66875 -10 
1749.675 10.66875 -10 
1792.35 10.66875 -10 
1835.025 10.66875 -10 
1877.7 10.66875 -10 
1920.375 10.66875 -10 
1963.05 10.66875 -10 
2005.725 10.66875 -10 
2048.4 10.66875 -10 
2091.075 10.66875 -10 
2133.75 10.66875 -10 
2176.425 10.66875 -10 
2219.1 10.66875 -10 
2261.775 10.66875 -10 
2304.45 10.66875 -10 
2347.125 10.66875 -10 
2389.8 10.66875 -10 
2432.475 10.66875 -10 
2475.15 10.66875 -10 
2517.825 10.66875 -10 
2560.5 10.66875 -10 
2603.175 10.66875 -10 
2645.85 10.66875 -10 
2688.525 10.66875 -10 
42.675 10.66875 0 
85.35 10.66875 0 
128.025 10.66875 0 
170.7 10.66875 0 
213.375 10.66875 0 
256.05 10.66875 0 
298.725 10.66875 0 
341.4 10.66875 0 
384.075 10.66875 0 
426.75 10.66875 0 
469.425 10.66875 0 
512.1 10.66875 0 
554.775 10.66875 0 
597.45 10.66875 0 
640.125 10.66875 0 
682.8 10.66875 0 
725.475 10.66875 0 
768.15 10.66875 0 
810.825 10.66875 0 
853.5 10.66875 0 
896.175 10.66875 0 
938.85 10.66875 0 
981.525 10.66875 0 
1024.2 10.66875 0 
1066.875 10.66875 0 
1109.55 10.66875 0 
1152.225 10.66875 0 
1194.9 10.66875 0 
1237.575 10.66875 0 
1280.25 10.66875 0 
1322.925 10.66875 0 
1365.6 10.66875 0 
1408.275 10.66875 0 
1450.95 10.66875 0 
1493.625 10.66875 0 
1536.3 10.66875 0 
1578.975 10.66875 0 
1621.65 10.66875 0 
1664.325 10.66875 0 
1707 10.66875 0 
1749.675 10.66875 0 
1792.35 10.66875 0 
1835.025 10.66875 0 
1877.7 10.66875 0 
1920.375 10.66875 0 
1963.05 10.66875 0 
2005.725 10.66875 0 
2048.4 10.66875 0 
2091.075 10.66875 0 
2133.75 10.66875 0 
2176.425 10.66875 0 
2219.1 10.66875 0 
2261.775 10.66875 0 
2304.45 10.66875 0 
2347.125 10.66875 0 
2389.8 10.66875 0 
2432.475 10.66875 0 
2475.15 10.66875 0 
2517.825 10.66875 0 
2560.5 10.66875 0 
2603.175 10.66875 0 
2645.85 10.66875 0 
2688.525 10.66875 0 
CELL_DATA 64
SCALARS GLOBAL_ID int 1
LOOKUP_TABLE default
0 
1 
2 
3 
4 
5 
6 
7 
8 
9 
10 
11 
12 
13 
14 
15 
16 
17 
18 
19 
20 
21 
22 
23 
24 
25 
26 
27 
28 
29 
30 
31 
32 
33 
34 
35 
36 
37 
38 
39 
40 
41 
42 
43 
44 
45 
46 
47 
48 
49 
50 
51 
52 
53 
54 
55 
56 
57 
58 
59 
60 
61 
62 
63 
VECTORS centroid_volumes double
21.3375 5.334375 -5 
64.0125 5.334375 -5 
106.6875 5.334375 -5 
149.3625 5.334375 -5 
192.0375 5.334375 -5 
234.7125 5.334375 -5 
277.3875 5.334375 -5 
320.0625 5.334375 -5 
362.7375 5.334375 -5 
405.4125 5.334375 -5 
448.0875 5.334375 -5 
490.7625 5.334375 -5 
533.4375 5.334375 -5 
576.1125 5.334375 -5 
618.7875 5.334375 -5 
661.4625 5.334375 -5 
704.1375 5.334375 -5 
746.8125 5.334375 -5 
789.4875 5.334375 -5 
832.1625 5.334375 -5 
874.8375 5.334375 -5 
917.5125 5.334375 -5 
960.1875 5.334375 -5 
1002.8625 5.334375 -5 
1045.5375 5.334375 -5 
1088.2125 5.334375 -5 
1130.8875 5.334375 -5 
1173.5625 5.334375 -5 
1216.2375 5.334375 -5 
1258.9125 5.334375 -5 
1301.5875 5.334375 -5 
1344.2625 5.334375 -5 
1386.9375 5.334375 -5 
1429.6125 5.334375 -5 
1472.2875 5.334375 -5 
1514.9625 5.334375 -5 
1557.6375 5.334375 -5 
1600.3125 5.334375 -5 
1642.9875 5.334375 -5 
1685.6625 5.334375 -5 
1728.3375 5.334375 -5 
1771.0125 5.334375 -5 
1813.6875 5.334375 -5 
1856.3625 5.334375 -5 
1899.0375 5.334375 -5 
1941.7125 5.334375 -5 
1984.3875 5.334375 -5 
2027.0625 5.334375 -5 
2069.7375 5.334375 -5 
2112.4125 5.334375 -5 
2155.0875 5.334375 -5 
2197.7625 5.334375 -5 
2240.4375 5.334375 -5 
2283.1125 5.334375 -5 
2325.7875 5.334375 -5 
2368.4625 5.334375 -5 
2411.1375 5.334375 -5 
2453.8125 5.334375 -5 
2496.4875 5.334375 -5 
2539.1625 5.334375 -5 
2581.8375 5.334375 -5 
2624.5125 5.334375 -5 
2667.1875 5.334375 -5 
2709.8625 5.334375 -5 
SCALARS flux_grav_volumes double 1
LOOKUP_TABLE default
0 
0 
0 
0 
0 
0 
0 
0 
0 
0 
0 
0 
0 
0 
0 
0 
0 
0 
0 
0 
0 
0 
0 
0 
0 
0 
0 
0 
0 
0 
0 
0 
0 
0 
0 
0 
0 
0 
0 
0 
0 
0 
0 
0 
0 
0 
0 
0 
0 
0 
0 
0 
0 
0 
0 
0 
0 
0 
0 
0 
0 
0 
0 
0 
SCALARS flux_o_volumes double 1
LOOKUP_TABLE default
0 
0 
0 
0 
0 
0 
0 
0 
0 
0 
0 
0 
0 
0 
0 
0 
0 
0 
0 
0 
0 
0 
0 
0 
0 
0 
0 
0 
0 
0 
0 
0 
0 
0 
0 
0 
0 
0 
0 
0 
0 
0 
0 
0 
0 
0 
0 
0 
0 
0 
0 
0 
0 
0 
0 
0 
0 
0 
0 
0 
0 
0 
0 
0 
SCALARS flux_volumes double 1
LOOKUP_TABLE default
0 
0 
0 
0 
0 
0 
0 
0 
0 
0 
0 
0 
0 
0 
0 
0 
0 
0 
0 
0 
0 
0 
0 
0 
0 
0 
0 
0 
0 
0 
0 
0 
0 
0 
0 
0 
0 
0 
0 
0 
0 
0 
0 
0 
0 
0 
0 
0 
0 
0 
0 
0 
0 
0 
0 
0 
0 
0 
0 
0 
0 
0 
0 
0 
SCALARS flux_volumes_test double 1
LOOKUP_TABLE default
0 
0 
0 
0 
0 
0 
0 
0 
0 
0 
0 
0 
0 
0 
0 
0 
0 
0 
0 
0 
0 
0 
0 
0 
0 
0 
0 
0 
0 
0 
0 
0 
0 
0 
0 
0 
0 
0 
0 
0 
0 
0 
0 
0 
0 
0 
0 
0 
0 
0 
0 
0 
0 
0 
0 
0 
0 
0 
0 
0 
0 
0 
0 
0 
SCALARS flux_w_volumes double 1
LOOKUP_TABLE default
0 
0 
0 
0 
0 
0 
0 
0 
0 
0 
0 
0 
0 
0 
0 
0 
0 
0 
0 
0 
0 
0 
0 
0 
0 
0 
0 
0 
0 
0 
0 
0 
0 
0 
0 
0 
0 
0 
0 
0 
0 
0 
0 
0 
0 
0 
0 
0 
0 
0 
0 
0 
0 
0 
0 
0 
0 
0 
0 
0 
0 
0 
0 
0 
SCALARS fw_vol double 1
LOOKUP_TABLE default
0 
0 
0 
0 
0 
0 
0 
0 
0 
0 
0 
0 
0 
0 
0 
0 
0 
0 
0 
0 
0 
0 
0 
0 
0 
0 
0 
0 
0 
0 
0 
0 
0 
0 
0 
0 
0 
0 
0 
0 
0 
0 
0 
0 
0 
0 
0 
0 
0 
0 
0 
0 
0 
0 
0 
0 
0 
0 
0 
0 
0 
0 
0 
0 
SCALARS gama double 1
LOOKUP_TABLE default
10000 
10000 
10000 
10000 
10000 
10000 
10000 
10000 
10000 
10000 
10000 
10000 
10000 
10000 
10000 
10000 
10000 
10000 
10000 
10000 
10000 
10000 
10000 
10000 
10000 
10000 
10000 
10000 
10000 
10000 
10000 
10000 
10000 
10000 
10000 
10000 
10000 
10000 
10000 
10000 
10000 
10000 
10000 
10000 
10000 
10000 
10000 
10000 
10000 
10000 
10000 
10000 
10000 
10000 
10000 
10000 
10000 
10000 
10000 
10000 
10000 
10000 
10000 
10000 
VECTORS hs double
42.675 10.66875 10 
42.675 10.66875 10 
42.675 10.66875 10 
42.675 10.66875 10 
42.675 10.66875 10 
42.675 10.66875 10 
42.675 10.66875 10 
42.675 10.66875 10 
42.675 10.66875 10 
42.675 10.66875 10 
42.675 10.66875 10 
42.675 10.66875 10 
42.675 10.66875 10 
42.675 10.66875 10 
42.675 10.66875 10 
42.675 10.66875 10 
42.675 10.66875 10 
42.675 10.66875 10 
42.675 10.66875 10 
42.675 10.66875 10 
42.675 10.66875 10 
42.675 10.66875 10 
42.675 10.66875 10 
42.675 10.66875 10 
42.675 10.66875 10 
42.675 10.66875 10 
42.675 10.66875 10 
42.675 10.66875 10 
42.675 10.66875 10 
42.675 10.66875 10 
42.675 10.66875 10 
42.675 10.66875 10 
42.675 10.66875 10 
42.675 10.66875 10 
42.675 10.66875 10 
42.675 10.66875 10 
42.675 10.66875 10 
42.675 10.66875 10 
42.675 10.66875 10 
42.675 10.66875 10 
42.675 10.66875 10 
42.675 10.66875 10 
42.675 10.66875 10 
42.675 10.66875 10 
42.675 10.66875 10 
42.675 10.66875 10 
42.675 10.66875 10 
42.675 10.66875 10 
42.675 10.66875 10 
42.675 10.66875 10 
42.675 10.66875 10 
42.675 10.66875 10 
42.675 10.66875 10 
42.675 10.66875 10 
42.675 10.66875 10 
42.675 10.66875 10 
42.675 10.66875 10 
42.675 10.66875 10 
42.675 10.66875 10 
42.675 10.66875 10 
42.675 10.66875 10 
42.675 10.66875 10 
42.675 10.66875 10 
42.675 10.66875 10 
SCALARS kro double 1
LOOKUP_TABLE default
0 
0 
0 
0 
0 
0 
0 
0 
0 
0 
0 
0 
0 
0 
0 
0 
0 
0 
0 
0 
0 
0 
0 
0 
0 
0 
0 
0 
0 
0 
0 
0 
0 
0 
0 
0 
0 
0 
0 
0 
0 
0 
0 
0 
0 
0 
0 
0 
0 
0 
0 
0 
0 
0 
0 
0 
0 
0 
0 
0 
0 
0 
0 
0 
SCALARS krw double 1
LOOKUP_TABLE default
0 
0 
0 
0 
0 
0 
0 
0 
0 
0 
0 
0 
0 
0 
0 
0 
0 
0 
0 
0 
0 
0 
0 
0 
0 
0 
0 
0 
0 
0 
0 
0 
0 
0 
0 
0 
0 
0 
0 
0 
0 
0 
0 
0 
0 
0 
0 
0 
0 
0 
0 
0 
0 
0 
0 
0 
0 
0 
0 
0 
0 
0 
0 
0 
SCALARS lambda_o double 1
LOOKUP_TABLE default
0 
0 
0 
0 
0 
0 
0 
0 
0 
0 
0 
0 
0 
0 
0 
0 
0 
0 
0 
0 
0 
0 
0 
0 
0 
0 
0 
0 
0 
0 
0 
0 
0 
0 
0 
0 
0 
0 
0 
0 
0 
0 
0 
0 
0 
0 
0 
0 
0 
0 
0 
0 
0 
0 
0 
0 
0 
0 
0 
0 
0 
0 
0 
0 
SCALARS lambda_t double 1
LOOKUP_TABLE default
0 
0 
0 
0 
0 
0 
0 
0 
0 
0 
0 
0 
0 
0 
0 
0 
0 
0 
0 
0 
0 
0 
0 
0 
0 
0 
0 
0 
0 
0 
0 
0 
0 
0 
0 
0 
0 
0 
0 
0 
0 
0 
0 
0 
0 
0 
0 
0 
0 
0 
0 
0 
0 
0 
0 
0 
0 
0 
0 
0 
0 
0 
0 
0 
SCALARS lambda_w double 1
LOOKUP_TABLE default
0 
0 
0 
0 
0 
0 
0 
0 
0 
0 
0 
0 
0 
0 
0 
0 
0 
0 
0 
0 
0 
0 
0 
0 
0 
0 
0 
0 
0 
0 
0 
0 
0 
0 
0 
0 
0 
0 
0 
0 
0 
0 
0 
0 
0 
0 
0 
0 
0 
0 
0 
0 
0 
0 
0 
0 
0 
0 
0 
0 
0 
0 
0 
0 
SCALARS mass_oil_production double 1
LOOKUP_TABLE default
0 
0 
0 
0 
0 
0 
0 
0 
0 
0 
0 
0 
0 
0 
0 
0 
0 
0 
0 
0 
0 
0 
0 
0 
0 
0 
0 
0 
0 
0 
0 
0 
0 
0 
0 
0 
0 
0 
0 
0 
0 
0 
0 
0 
0 
0 
0 
0 
0 
0 
0 
0 
0 
0 
0 
0 
0 
0 
0 
0 
0 
0 
0 
0 
SCALARS mass_water_production double 1
LOOKUP_TABLE default
0 
0 
0 
0 
0 
0 
0 
0 
0 
0 
0 
0 
0 
0 
0 
0 
0 
0 
0 
0 
0 
0 
0 
0 
0 
0 
0 
0 
0 
0 
0 
0 
0 
0 
0 
0 
0 
0 
0 
0 
0 
0 
0 
0 
0 
0 
0 
0 
0 
0 
0 
0 
0 
0 
0 
0 
0 
0 
0 
0 
0 
0 
0 
0 
TENSORS permeability double
1e-14 0 0 0 1e-14 0 0 0 1e-14 
1e-14 0 0 0 1e-14 0 0 0 1e-14 
1e-14 0 0 0 1e-14 0 0 0 1e-14 
1e-14 0 0 0 1e-14 0 0 0 1e-14 
1e-14 0 0 0 1e-14 0 0 0 1e-14 
1e-14 0 0 0 1e-14 0 0 0 1e-14 
1e-14 0 0 0 1e-14 0 0 0 1e-14 
1e-14 0 0 0 1e-14 0 0 0 1e-14 
1e-14 0 0 0 1e-14 0 0 0 1e-14 
1e-14 0 0 0 1e-14 0 0 0 1e-14 
1e-14 0 0 0 1e-14 0 0 0 1e-14 
1e-14 0 0 0 1e-14 0 0 0 1e-14 
1e-14 0 0 0 1e-14 0 0 0 1e-14 
1e-14 0 0 0 1e-14 0 0 0 1e-14 
1e-14 0 0 0 1e-14 0 0 0 1e-14 
1e-14 0 0 0 1e-14 0 0 0 1e-14 
1e-14 0 0 0 1e-14 0 0 0 1e-14 
1e-14 0 0 0 1e-14 0 0 0 1e-14 
1e-14 0 0 0 1e-14 0 0 0 1e-14 
1e-14 0 0 0 1e-14 0 0 0 1e-14 
1e-14 0 0 0 1e-14 0 0 0 1e-14 
1e-14 0 0 0 1e-14 0 0 0 1e-14 
1e-14 0 0 0 1e-14 0 0 0 1e-14 
1e-14 0 0 0 1e-14 0 0 0 1e-14 
1e-14 0 0 0 1e-14 0 0 0 1e-14 
1e-14 0 0 0 1e-14 0 0 0 1e-14 
1e-14 0 0 0 1e-14 0 0 0 1e-14 
1e-14 0 0 0 1e-14 0 0 0 1e-14 
1e-14 0 0 0 1e-14 0 0 0 1e-14 
1e-14 0 0 0 1e-14 0 0 0 1e-14 
1e-14 0 0 0 1e-14 0 0 0 1e-14 
1e-14 0 0 0 1e-14 0 0 0 1e-14 
1e-14 0 0 0 1e-14 0 0 0 1e-14 
1e-14 0 0 0 1e-14 0 0 0 1e-14 
1e-14 0 0 0 1e-14 0 0 0 1e-14 
1e-14 0 0 0 1e-14 0 0 0 1e-14 
1e-14 0 0 0 1e-14 0 0 0 1e-14 
1e-14 0 0 0 1e-14 0 0 0 1e-14 
1e-14 0 0 0 1e-14 0 0 0 1e-14 
1e-14 0 0 0 1e-14 0 0 0 1e-14 
1e-14 0 0 0 1e-14 0 0 0 1e-14 
1e-14 0 0 0 1e-14 0 0 0 1e-14 
1e-14 0 0 0 1e-14 0 0 0 1e-14 
1e-14 0 0 0 1e-14 0 0 0 1e-14 
1e-14 0 0 0 1e-14 0 0 0 1e-14 
1e-14 0 0 0 1e-14 0 0 0 1e-14 
1e-14 0 0 0 1e-14 0 0 0 1e-14 
1e-14 0 0 0 1e-14 0 0 0 1e-14 
1e-14 0 0 0 1e-14 0 0 0 1e-14 
1e-14 0 0 0 1e-14 0 0 0 1e-14 
1e-14 0 0 0 1e-14 0 0 0 1e-14 
1e-14 0 0 0 1e-14 0 0 0 1e-14 
1e-14 0 0 0 1e-14 0 0 0 1e-14 
1e-14 0 0 0 1e-14 0 0 0 1e-14 
1e-14 0 0 0 1e-14 0 0 0 1e-14 
1e-14 0 0 0 1e-14 0 0 0 1e-14 
1e-14 0 0 0 1e-14 0 0 0 1e-14 
1e-14 0 0 0 1e-14 0 0 0 1e-14 
1e-14 0 0 0 1e-14 0 0 0 1e-14 
1e-14 0 0 0 1e-14 0 0 0 1e-14 
1e-14 0 0 0 1e-14 0 0 0 1e-14 
1e-14 0 0 0 1e-14 0 0 0 1e-14 
1e-14 0 0 0 1e-14 0 0 0 1e-14 
1e-14 0 0 0 1e-14 0 0 0 1e-14 
SCALARS poro double 1
LOOKUP_TABLE default
0.35 
0.35 
0.35 
0.35 
0.35 
0.35 
0.35 
0.35 
0.35 
0.35 
0.35 
0.35 
0.35 
0.35 
0.35 
0.35 
0.35 
0.35 
0.35 
0.35 
0.35 
0.35 
0.35 
0.35 
0.35 
0.35 
0.35 
0.35 
0.35 
0.35 
0.35 
0.35 
0.35 
0.35 
0.35 
0.35 
0.35 
0.35 
0.35 
0.35 
0.35 
0.35 
0.35 
0.35 
0.35 
0.35 
0.35 
0.35 
0.35 
0.35 
0.35 
0.35 
0.35 
0.35 
0.35 
0.35 
0.35 
0.35 
0.35 
0.35 
0.35 
0.35 
0.35 
0.35 
SCALARS pressure double 1
LOOKUP_TABLE default
0 
0 
0 
0 
0 
0 
0 
0 
0 
0 
0 
0 
0 
0 
0 
0 
0 
0 
0 
0 
0 
0 
0 
0 
0 
0 
0 
0 
0 
0 
0 
0 
0 
0 
0 
0 
0 
0 
0 
0 
0 
0 
0 
0 
0 
0 
0 
0 
0 
0 
0 
0 
0 
0 
0 
0 
0 
0 
0 
0 
0 
0 
0 
0 
SCALARS saturation double 1
LOOKUP_TABLE default
0.8817994167 
0.8737120027 
0.8697867052 
0.86594975 
0.8623516629 
0.8566019403 
0.8414396996 
0.7455967181 
0.3886662085 
0.3010407194 
0.3000004859 
0.3 
0.3 
0.3 
0.3 
0.3 
0.3 
0.3 
0.3 
0.3 
0.3 
0.3 
0.3 
0.3 
0.3 
0.3 
0.3 
0.3 
0.3 
0.3 
0.3 
0.3 
0.3 
0.3 
0.3 
0.3 
0.3 
0.3 
0.3 
0.3 
0.3 
0.3 
0.3 
0.3 
0.3 
0.3 
0.3 
0.3 
0.3 
0.3 
0.3 
0.3 
0.3 
0.3 
0.3 
0.3 
0.3 
0.3 
0.3 
0.3 
0.3 
0.3 
0.3 
0.3 
SCALARS saturation_last double 1
LOOKUP_TABLE default
0 
0 
0 
0 
0 
0 
0 
0 
0 
0 
0 
0 
0 
0 
0 
0 
0 
0 
0 
0 
0 
0 
0 
0 
0 
0 
0 
0 
0 
0 
0 
0 
0 
0 
0 
0 
0 
0 
0 
0 
0 
0 
0 
0 
0 
0 
0 
0 
0 
0 
0 
0 
0 
0 
0 
0 
0 
0 
0 
0 
0 
0 
0 
0 
SCALARS test_fw double 1
LOOKUP_TABLE default
0 
0 
0 
0 
0 
0 
0 
0 
0 
0 
0 
0 
0 
0 
0 
0 
0 
0 
0 
0 
0 
0 
0 
0 
0 
0 
0 
0 
0 
0 
0 
0 
0 
0 
0 
0 
0 
0 
0 
0 
0 
0 
0 
0 
0 
0 
0 
0 
0 
0 
0 
0 
0 
0 
0 
0 
0 
0 
0 
0 
0 
0 
0 
0 
SCALARS verif_po double 1
LOOKUP_TABLE default
0 
0 
0 
0 
0 
0 
0 
0 
0 
0 
0 
0 
0 
0 
0 
0 
0 
0 
0 
0 
0 
0 
0 
0 
0 
0 
0 
0 
0 
0 
0 
0 
0 
0 
0 
0 
0 
0 
0 
0 
0 
0 
0 
0 
0 
0 
0 
0 
0 
0 
0 
0 
0 
0 
0 
0 
0 
0 
0 
0 
0 
0 
0 
0 
SCALARS verif_rest double 1
LOOKUP_TABLE default
0 
0 
0 
0 
0 
0 
0 
0 
0 
0 
0 
0 
0 
0 
0 
0 
0 
0 
0 
0 
0 
0 
0 
0 
0 
0 
0 
0 
0 
0 
0 
0 
0 
0 
0 
0 
0 
0 
0 
0 
0 
0 
0 
0 
0 
0 
0 
0 
0 
0 
0 
0 
0 
0 
0 
0 
0 
0 
0 
0 
0 
0 
0 
0 
SCALARS volume double 1
LOOKUP_TABLE default
4552.889062 
4552.889062 
4552.889062 
4552.889062 
4552.889062 
4552.889062 
4552.889062 
4552.889062 
4552.889062 
4552.889062 
4552.889062 
4552.889062 
4552.889062 
4552.889062 
4552.889062 
4552.889062 
4552.889062 
4552.889062 
4552.889062 
4552.889062 
4552.889062 
4552.889062 
4552.889062 
4552.889062 
4552.889062 
4552.889062 
4552.889062 
4552.889062 
4552.889062 
4552.889062 
4552.889062 
4552.889062 
4552.889062 
4552.889062 
4552.889062 
4552.889062 
4552.889062 
4552.889062 
4552.889062 
4552.889062 
4552.889062 
4552.889062 
4552.889062 
4552.889062 
4552.889062 
4552.889062 
4552.889062 
4552.889062 
4552.889062 
4552.889062 
4552.889062 
4552.889062 
4552.889062 
4552.889062 
4552.889062 
4552.889062 
4552.889062 
4552.889062 
4552.889062 
4552.889062 
4552.889062 
4552.889062 
4552.889062 
4552.889062 
VECTORS weight double
0 0 0 
0 0 0 
0 0 0 
0 0 0 
0 0 0 
0 0 0 
0 0 0 
0 0 0 
0 0 0 
0 0 0 
0 0 0 
0 0 0 
0 0 0 
0 0 0 
0 0 0 
0 0 0 
0 0 0 
0 0 0 
0 0 0 
0 0 0 
0 0 0 
0 0 0 
0 0 0 
0 0 0 
0 0 0 
0 0 0 
0 0 0 
0 0 0 
0 0 0 
0 0 0 
0 0 0 
0 0 0 
0 0 0 
0 0 0 
0 0 0 
0 0 0 
0 0 0 
0 0 0 
0 0 0 
0 0 0 
0 0 0 
0 0 0 
0 0 0 
0 0 0 
0 0 0 
0 0 0 
0 0 0 
0 0 0 
0 0 0 
0 0 0 
0 0 0 
0 0 0 
0 0 0 
0 0 0 
0 0 0 
0 0 0 
0 0 0 
0 0 0 
0 0 0 
0 0 0 
0 0 0 
0 0 0 
0 0 0 
0 0 0 
SCALARS P double 1
LOOKUP_TABLE default
0 
0 
0 
0 
0 
0 
0 
0 
0 
0 
0 
0 
0 
0 
0 
0 
0 
0 
0 
0 
0 
0 
0 
0 
0 
0 
0 
0 
0 
0 
0 
0 
0 
0 
0 
0 
0 
0 
0 
0 
0 
0 
0 
0 
0 
0 
0 
0 
0 
0 
0 
0 
0 
0 
0 
0 
0 
0 
0 
0 
0 
0 
0 
8960000 
SCALARS Q double 1
LOOKUP_TABLE default
0 
0 
0 
0 
0 
0 
0 
0 
0 
0 
0 
0 
0 
0 
0 
0 
0 
0 
0 
0 
0 
0 
0 
0 
0 
0 
0 
0 
0 
0 
0 
0 
0 
0 
0 
0 
0 
0 
0 
0 
0 
0 
0 
0 
0 
0 
0 
0 
0 
0 
0 
0 
0 
0 
0 
0 
0 
0 
0 
0 
0 
0 
0 
0 
SCALARS INJ int 1
LOOKUP_TABLE default
1 
0 
0 
0 
0 
0 
0 
0 
0 
0 
0 
0 
0 
0 
0 
0 
0 
0 
0 
0 
0 
0 
0 
0 
0 
0 
0 
0 
0 
0 
0 
0 
0 
0 
0 
0 
0 
0 
0 
0 
0 
0 
0 
0 
0 
0 
0 
0 
0 
0 
0 
0 
0 
0 
0 
0 
0 
0 
0 
0 
0 
0 
0 
0 
SCALARS PROD int 1
LOOKUP_TABLE default
0 
0 
0 
0 
0 
0 
0 
0 
0 
0 
0 
0 
0 
0 
0 
0 
0 
0 
0 
0 
0 
0 
0 
0 
0 
0 
0 
0 
0 
0 
0 
0 
0 
0 
0 
0 
0 
0 
0 
0 
0 
0 
0 
0 
0 
0 
0 
0 
0 
0 
0 
0 
0 
0 
0 
0 
0 
0 
0 
0 
0 
0 
0 
1 
