# vtk DataFile Version 3.0
MOAB 5.1.1
ASCII
DATASET UNSTRUCTURED_GRID
POINTS 36 double
0 0 0
0 0 3.048
0 3.048 3.048
0 3.048 0
609.6 0 0
609.6 0 3.048
609.6 3.048 3.048
609.6 3.048 0
76.2 0 0
152.4 0 0
228.6 0 0
304.8 0 0
381 0 0
457.2 0 0
533.4 0 0
76.2 0 3.048
152.4 0 3.048
228.6 0 3.048
304.8 0 3.048
381 0 3.048
457.2 0 3.048
533.4 0 3.048
76.2 3.048 3.048
152.4 3.048 3.048
228.6 3.048 3.048
304.8 3.048 3.048
381 3.048 3.048
457.2 3.048 3.048
533.4 3.048 3.048
76.2 3.048 0
152.4 3.048 0
228.6 3.048 0
304.8 3.048 0
381 3.048 0
457.2 3.048 0
533.4 3.048 0
CELLS 8 72
8 2 1 0 3 22 15 8 29
8 22 15 8 29 23 16 9 30
8 23 16 9 30 24 17 10 31
8 24 17 10 31 25 18 11 32
8 25 18 11 32 26 19 12 33
8 26 19 12 33 27 20 13 34
8 27 20 13 34 28 21 14 35
8 28 21 14 35 6 5 4 7
CELL_TYPES 8
12
12
12
12
12
12
12
12
POINT_DATA 36
SCALARS GLOBAL_ID int 1
LOOKUP_TABLE default
0 
1 
2 
3 
4 
5 
6 
7 
8 
9 
10 
11 
12 
13 
14 
15 
16 
17 
18 
19 
20 
21 
22 
23 
24 
25 
26 
27 
28 
29 
30 
31 
32 
33 
34 
35 
VECTORS NODES double
0 0 0 
0 0 3.048 
0 3.048 3.048 
0 3.048 0 
609.6 0 0 
609.6 0 3.048 
609.6 3.048 3.048 
609.6 3.048 0 
76.2 0 0 
152.4 0 0 
228.6 0 0 
304.8 0 0 
381 0 0 
457.2 0 0 
533.4 0 0 
76.2 0 3.048 
152.4 0 3.048 
228.6 0 3.048 
304.8 0 3.048 
381 0 3.048 
457.2 0 3.048 
533.4 0 3.048 
76.2 3.048 3.048 
152.4 3.048 3.048 
228.6 3.048 3.048 
304.8 3.048 3.048 
381 3.048 3.048 
457.2 3.048 3.048 
533.4 3.048 3.048 
76.2 3.048 0 
152.4 3.048 0 
228.6 3.048 0 
304.8 3.048 0 
381 3.048 0 
457.2 3.048 0 
533.4 3.048 0 
VECTORS centroid_nodes double
0 0 0 
0 0 3.048 
0 3.048 3.048 
0 3.048 0 
609.6 0 0 
609.6 0 3.048 
609.6 3.048 3.048 
609.6 3.048 0 
76.2 0 0 
152.4 0 0 
228.6 0 0 
304.8 0 0 
381 0 0 
457.2 0 0 
533.4 0 0 
76.2 0 3.048 
152.4 0 3.048 
228.6 0 3.048 
304.8 0 3.048 
381 0 3.048 
457.2 0 3.048 
533.4 0 3.048 
76.2 3.048 3.048 
152.4 3.048 3.048 
228.6 3.048 3.048 
304.8 3.048 3.048 
381 3.048 3.048 
457.2 3.048 3.048 
533.4 3.048 3.048 
76.2 3.048 0 
152.4 3.048 0 
228.6 3.048 0 
304.8 3.048 0 
381 3.048 0 
457.2 3.048 0 
533.4 3.048 0 
CELL_DATA 8
SCALARS GLOBAL_ID int 1
LOOKUP_TABLE default
0 
1 
2 
3 
4 
5 
6 
7 
VECTORS centroid_volumes double
38.1 1.524 1.524 
114.3 1.524 1.524 
190.5 1.524 1.524 
266.7 1.524 1.524 
342.9 1.524 1.524 
419.1 1.524 1.524 
495.3 1.524 1.524 
571.5 1.524 1.524 
SCALARS flux_grav_volumes double 1
LOOKUP_TABLE default
0 
0 
0 
0 
0 
0 
0 
0 
SCALARS flux_o_volumes double 1
LOOKUP_TABLE default
0 
0 
0 
0 
0 
0 
0 
0 
SCALARS flux_volumes double 1
LOOKUP_TABLE default
0 
0 
0 
0 
0 
0 
0 
0 
SCALARS flux_volumes_test double 1
LOOKUP_TABLE default
0 
0 
0 
0 
0 
0 
0 
0 
SCALARS flux_w_volumes double 1
LOOKUP_TABLE default
0 
0 
0 
0 
0 
0 
0 
0 
SCALARS fw_vol double 1
LOOKUP_TABLE default
0 
0 
0 
0 
0 
0 
0 
0 
SCALARS gama double 1
LOOKUP_TABLE default
10000 
10000 
10000 
10000 
10000 
10000 
10000 
10000 
VECTORS hs double
76.2 3.048 3.048 
76.2 3.048 3.048 
76.2 3.048 3.048 
76.2 3.048 3.048 
76.2 3.048 3.048 
76.2 3.048 3.048 
76.2 3.048 3.048 
76.2 3.048 3.048 
SCALARS kro double 1
LOOKUP_TABLE default
0 
0 
0 
0 
0 
0 
0 
0 
SCALARS krw double 1
LOOKUP_TABLE default
0 
0 
0 
0 
0 
0 
0 
0 
SCALARS lambda_o double 1
LOOKUP_TABLE default
0 
0 
0 
0 
0 
0 
0 
0 
SCALARS lambda_t double 1
LOOKUP_TABLE default
0 
0 
0 
0 
0 
0 
0 
0 
SCALARS lambda_w double 1
LOOKUP_TABLE default
0 
0 
0 
0 
0 
0 
0 
0 
SCALARS mass_oil_production double 1
LOOKUP_TABLE default
0 
0 
0 
0 
0 
0 
0 
0 
SCALARS mass_water_production double 1
LOOKUP_TABLE default
0 
0 
0 
0 
0 
0 
0 
0 
TENSORS permeability double
4.934617e-13 0 0 0 4.934617e-13 0 0 0 4.934617e-13 
4.934617e-13 0 0 0 4.934617e-13 0 0 0 4.934617e-13 
4.934617e-13 0 0 0 4.934617e-13 0 0 0 4.934617e-13 
4.934617e-13 0 0 0 4.934617e-13 0 0 0 4.934617e-13 
4.934617e-13 0 0 0 4.934617e-13 0 0 0 4.934617e-13 
4.934617e-13 0 0 0 4.934617e-13 0 0 0 4.934617e-13 
4.934617e-13 0 0 0 4.934617e-13 0 0 0 4.934617e-13 
4.934617e-13 0 0 0 4.934617e-13 0 0 0 4.934617e-13 
SCALARS poro double 1
LOOKUP_TABLE default
0.2 
0.2 
0.2 
0.2 
0.2 
0.2 
0.2 
0.2 
SCALARS pressure double 1
LOOKUP_TABLE default
0 
0 
0 
0 
0 
0 
0 
0 
SCALARS saturation double 1
LOOKUP_TABLE default
0.2 
0.2 
0.2 
0.2 
0.2 
0.2 
0.2 
0.2 
SCALARS saturation_last double 1
LOOKUP_TABLE default
0 
0 
0 
0 
0 
0 
0 
0 
SCALARS test_fw double 1
LOOKUP_TABLE default
0 
0 
0 
0 
0 
0 
0 
0 
SCALARS verif_po double 1
LOOKUP_TABLE default
0 
0 
0 
0 
0 
0 
0 
0 
SCALARS verif_rest double 1
LOOKUP_TABLE default
0 
0 
0 
0 
0 
0 
0 
0 
SCALARS volume double 1
LOOKUP_TABLE default
707.9211648 
707.9211648 
707.9211648 
707.9211648 
707.9211648 
707.9211648 
707.9211648 
707.9211648 
VECTORS weight double
0 0 0 
0 0 0 
0 0 0 
0 0 0 
0 0 0 
0 0 0 
0 0 0 
0 0 0 
SCALARS P double 1
LOOKUP_TABLE default
13100038.85 
0 
0 
0 
0 
0 
0 
0 
SCALARS PROD int 1
LOOKUP_TABLE default
1 
0 
0 
0 
0 
0 
0 
0 
